33
Azulene_H8_deriv1_Int2_Sub18.log	Energy: -1185428.5259209
C         -0.00775       -0.07641       -0.19313
C         -0.77285        0.97574       -0.70973
C         -0.42553       -1.31136        0.31294
C         -2.16135        1.06987       -0.82241
H         -0.22892        1.84726       -1.08004
C         -1.72928       -1.78997        0.47462
H          0.36271       -2.01098        0.60170
C         -3.15298        0.16123       -0.44594
Cl        -2.71121        2.57065       -1.52221
C         -2.94919       -1.18109        0.16941
Cl        -1.81418       -3.38525        1.16840
C         -4.53981        0.33797       -0.57459
C         -4.22722       -1.72693        0.37235
H         -5.01630        1.22138       -0.99365
C         -5.18065       -0.80505       -0.07825
H         -4.42132       -2.70513        0.80636
H         -6.26067       -0.95505       -0.04863
O          1.75996        2.15971        0.34951
C          1.19556        2.54172        1.37507
O          0.59220        1.73300        2.20314
C          1.12398        3.98129        1.74002
H          1.89110        4.54511        1.19904
H          0.12874        4.35287        1.44785
H          1.22368        4.10936        2.82536
H          0.59508        0.83004        1.81318
Pd         1.94019        0.16705       -0.19229
O          4.09520       -0.31708       -0.39373
C          3.71833       -1.48022       -0.66284
O          2.46246       -1.73877       -0.65825
C          4.67717       -2.57010       -1.01596
H          4.35604       -3.51813       -0.56448
H          4.67292       -2.70329       -2.10866
H          5.69062       -2.30481       -0.69248
