42
Azulene_H12_Int2_Sub13.log	Energy: -682736.6767454
C         -0.46471       -0.04541       -0.33472
C         -0.94663        1.17894        0.14398
C         -1.18487       -1.07873       -0.95343
C         -2.24442        1.71887        0.17997
H         -0.16883        1.84156        0.53725
C         -2.65603       -1.11039       -1.19367
C         -0.67762       -2.28926       -1.45422
C         -3.41962        1.10921       -0.27281
C         -2.37213        3.11698        0.76895
C         -3.59422       -0.13708       -0.87435
C         -2.94246       -2.34053       -1.81865
C         -1.74493       -3.04317       -1.97760
H          0.37263       -2.57692       -1.45510
H         -4.33293        1.69743       -0.14198
H         -4.62657       -0.38752       -1.14358
H         -3.93579       -2.66716       -2.12656
H         -1.64628       -4.02436       -2.44502
O          1.24554       -2.05493        0.93680
C          0.40927       -2.36524        1.78282
O         -0.55433       -1.58008        2.17961
C          0.41357       -3.71113        2.41878
H          1.40017       -4.17443        2.31310
H          0.11315       -3.64350        3.47198
H         -0.33214       -4.32868        1.89312
H         -0.57553       -0.77619        1.61203
Pd         1.46198       -0.25230       -0.05864
O          3.63972        0.26363       -0.12227
C          3.27668        1.30699       -0.70915
O          2.02855        1.50797       -0.91663
C          4.25695        2.32300       -1.20533
H          3.87373        3.33705       -1.02973
H          5.22995        2.18287       -0.71970
H          4.37694        2.19687       -2.29224
H         -3.44322        3.37668        0.73900
C         -1.93210        3.16506        2.23187
H         -2.11368        4.16482        2.65603
H         -2.48274        2.43113        2.83961
H         -0.85675        2.95207        2.33749
C         -1.62432        4.14672       -0.07880
H         -1.97715        4.13493       -1.12069
H         -1.77483        5.16051        0.32400
H         -0.54145        3.94676       -0.09355
