37
Azulene_H8_deriv1_Int2_Sub24.log	Energy: -968927.0527502
C          0.05392        0.06257       -0.20250
C          0.87245       -0.95441       -0.70379
C          0.38770        1.32271        0.30063
C          2.26746       -0.97555       -0.78239
H          0.37853       -1.85200       -1.08079
C          1.65316        1.90792        0.46081
H         -0.46606        1.94784        0.56524
C          3.19492       -0.00777       -0.39767
Cl         2.91159       -2.45738       -1.44551
C          2.90469        1.32663        0.17377
O          1.75568        3.15343        0.94814
C          4.59899       -0.10750       -0.49487
C          4.13597        1.95615        0.38584
H          5.13253       -0.97232       -0.88293
C          5.15915        1.07938       -0.01968
H          4.25685        2.95558        0.79754
H          6.22743        1.29509        0.02795
O         -1.60650       -2.26203        0.33381
C         -1.00260       -2.62601        1.34310
O         -0.39686       -1.80146        2.15351
C         -0.88150       -4.06288        1.70663
H         -1.65248       -4.64763        1.19409
H          0.11206       -4.40777        1.37805
H         -0.93767       -4.19202        2.79493
H         -0.41591       -0.90223        1.75463
Pd        -1.87929       -0.27955       -0.20777
O         -4.06629        0.11063       -0.41022
C         -3.74090        1.28964       -0.67051
O         -2.49899        1.60932       -0.65979
C         -4.74958        2.33527       -1.02441
H         -4.46607        3.30183       -0.58739
H         -4.76373        2.45494       -2.11864
H         -5.74766        2.03064       -0.68780
C          0.61602        3.91189        1.25916
H         -0.03772        4.04935        0.38222
H          0.03028        3.45546        2.07488
H          0.98436        4.89060        1.59090
