42
Azulene_H16_deriv1_Int2_Sub21.log	Energy: -971050.0647360
C         -0.59121        0.08800       -0.56680
C          0.43770       -0.38431        0.28109
C         -0.00573        0.70426       -1.68549
C          1.69916       -0.09298       -0.28695
H          0.26128       -0.94957        1.19052
C          1.39069        0.60410       -1.57745
H         -0.52846        1.17376       -2.51833
C          2.94915       -0.40786        0.28458
C          2.26954        1.09857       -2.53430
C          4.18297       -0.20479       -0.38179
C          2.98395       -1.01652        1.68481
C          3.65525        1.01798       -2.54209
H          1.80152        1.59187       -3.39228
C          4.48160        0.42119       -1.59664
Cl         5.64933       -0.82533        0.37676
H          4.16797        1.45769       -3.40151
H          5.54855        0.44500       -1.82954
O         -2.53946        1.97048        0.36283
C         -1.73480        2.69580        0.94651
O         -0.51658        2.35713        1.25573
C         -2.10719        4.08230        1.35254
H         -3.17757        4.24770        1.19348
H         -1.83842        4.24544        2.40541
H         -1.52348        4.79635        0.75209
H         -0.28730        1.46440        0.88222
Pd        -2.47652       -0.02680       -0.16405
O         -4.52578       -0.87306        0.08968
C         -4.02337       -1.95007       -0.30364
O         -2.77564       -1.99268       -0.58607
C         -4.83978       -3.19176       -0.48087
H         -5.80195       -3.09083        0.03507
H         -5.02104       -3.34717       -1.55535
H         -4.28624       -4.06451       -0.10923
H          4.04124       -1.03775        1.96968
C          2.31850       -0.15118        2.75923
H          2.60160       -0.53346        3.75219
H          2.66725        0.89050        2.69165
H          1.22285       -0.13612        2.71253
C          2.53373       -2.47944        1.69420
H          3.15329       -3.07470        1.00693
H          2.65325       -2.90064        2.70446
H          1.48555       -2.60939        1.39226
