36
Azulene_H16_deriv1_Int2_Sub6.log	Energy: -921759.2548880
C          0.22856        0.04076        0.37255
C         -0.69300       -0.66179       -0.44616
C         -0.46953        0.79208        1.34618
C         -1.99286       -0.34363        0.01143
C         -0.34029       -1.57723       -1.57275
C         -1.84273        0.58711        1.17023
H         -0.02355        1.42295        2.11505
C         -3.17204       -0.82591       -0.53930
C         -2.85935        1.15439        1.93289
C         -4.49052       -0.56349       -0.15409
H         -3.06451       -1.50319       -1.39071
C         -4.23967        1.00330        1.80225
H         -2.52434        1.80775        2.74549
C         -4.96245        0.24631        0.88049
Cl        -5.72020       -1.36586       -1.10401
H         -4.84861        1.55446        2.52402
H         -6.05059        0.28444        0.97485
O          2.25195        2.02842       -0.11053
C          1.53582        2.73979       -0.81538
O          0.42671        2.34090       -1.36982
C          1.88847        4.16191       -1.08903
H          2.89867        4.37703       -0.72638
H          1.80817        4.36306       -2.16625
H          1.16017        4.81145       -0.58021
H          0.19758        1.43740       -1.03325
Pd         2.15498       -0.01651        0.17494
O          4.23007       -0.84083        0.06883
C          3.69305       -1.95591        0.24979
O          2.41880       -2.02438        0.37074
C          4.48871       -3.21859        0.35339
H          5.51522       -3.05125        0.00671
H          4.50873       -3.54125        1.40542
H          4.00586       -4.01659       -0.22680
H         -1.08431       -2.37783       -1.69735
H          0.63302       -2.05056       -1.38046
H         -0.27039       -1.04622       -2.53816
