45
Azulene_H18_Int2_Sub20.log	Energy: -707384.0646589
C         -0.04876       -0.03020       -0.16073
C         -0.71178        1.10913        0.34726
C         -1.03602       -0.86747       -0.72797
C         -2.17303        0.92082        0.08575
C         -0.08006        2.19287        0.95482
C         -2.32396       -0.32120       -0.59103
H         -0.81602       -1.82019       -1.21053
C         -3.18181        1.80276        0.46063
C         -0.63052        3.35401        1.49469
H          1.01099        2.11372        0.98974
C         -3.60576       -0.98228       -1.07701
C         -3.10315        3.03380        1.12013
H         -4.19742        1.49729        0.20062
C         -1.97614        3.71757        1.57159
H          0.08332        4.06959        1.91184
H         -4.06098        3.53103        1.29723
H         -2.17562        4.68100        2.05228
O          1.64400       -2.27600        0.47814
C          0.96789       -2.62113        1.44949
O          0.10780       -1.84838        2.04415
C          1.08130       -3.99314        2.02151
H          0.14252       -4.53539        1.83251
H          1.92057       -4.52603        1.56323
H          1.20735       -3.92955        3.11126
H          0.00681       -1.01815        1.49661
Pd         1.87832       -0.34841       -0.22781
O          4.05670       -0.00176       -0.57329
C          3.71956        1.15108       -0.92257
O          2.48221        1.48114       -0.88054
C          4.71174        2.15685       -1.41568
H          4.63681        2.22028       -2.51203
H          4.47782        3.15022       -1.00995
H          5.72925        1.85264       -1.14303
C         -3.28698       -2.31447       -1.76336
H         -4.21678       -2.78498       -2.11813
H         -2.62837       -2.17452       -2.63383
H         -2.79868       -3.01937       -1.07307
C         -4.53887       -1.28472        0.10687
H         -4.85617       -0.37710        0.63841
H         -5.44697       -1.80225       -0.24254
H         -4.03475       -1.93477        0.83836
C         -4.31831       -0.09161       -2.10745
H         -5.22618       -0.59099       -2.48281
H         -4.61962        0.87932       -1.69110
H         -3.65847        0.10910       -2.96497
