36
Azulene_H8_deriv1_Int2_Sub22.log	Energy: -921759.2100713
C         -0.06750       -0.22821       -0.12481
C         -0.89010        0.72400       -0.73317
C         -0.41252       -1.43129        0.50444
C         -2.28335        0.72208       -0.83741
H         -0.40042        1.58755       -1.18895
C         -1.66937       -2.00380        0.74370
H          0.43773       -2.03068        0.84426
C         -3.21075       -0.20451       -0.36071
Cl        -2.92760        2.11339       -1.67394
C         -2.91477       -1.46504        0.37738
C         -1.67443       -3.32472        1.46498
C         -4.60847       -0.12080       -0.49050
C         -4.16021       -2.05968        0.64439
H         -5.13968        0.68807       -0.98700
C         -5.17467       -1.24445        0.12003
H         -4.31408       -2.99950        1.17101
H         -6.24351       -1.45536        0.17798
O          1.56645        2.13967        0.26388
C          0.96321        2.55731        1.25229
O          0.35431        1.77802        2.10426
C          0.85028        4.01150        1.54400
H          1.60558        4.56833        0.97981
H         -0.15334        4.34214        1.23260
H          0.94173        4.19471        2.62235
H          0.37582        0.85772        1.75626
Pd         1.86034        0.13218       -0.16774
O          4.04598       -0.23435       -0.37721
C          3.73477       -1.43041       -0.57384
O          2.49846       -1.76569       -0.53293
C          4.75454       -2.47889       -0.88402
H          4.49459       -3.42138       -0.38423
H          4.75040       -2.66471       -1.96903
H          5.75308       -2.13882       -0.58489
H         -2.16242       -4.10023        0.85478
H         -2.23835       -3.25617        2.40826
H         -0.65511       -3.65938        1.69531
