36
Azulene_H16_Int2_Sub6.log	Energy: -633438.2287894
C          0.27498       -0.15446       -0.23331
C          1.00280       -0.86225        0.75851
C          1.16221        0.34755       -1.21198
C          2.37072       -0.79988        0.40603
C          0.41287       -1.55410        1.94429
C          2.46741       -0.02631       -0.86656
H          0.88823        0.92445       -2.09538
C          3.42098       -1.36204        1.12378
C          3.61889        0.28399       -1.58671
C          4.79075       -1.34661        0.84839
H          3.13209       -1.89301        2.03680
C          4.94687       -0.03657       -1.30653
H          3.44996        0.86154       -2.50233
C          5.45900       -0.75836       -0.22559
H          5.42402       -1.86709        1.57246
H          5.68496        0.32312       -2.02907
H          6.54676       -0.88271       -0.22208
O         -1.44402        2.15241       -0.17980
C         -0.67760        2.83459        0.50054
O          0.31792        2.35377        1.18856
C         -0.82852        4.31565        0.58241
H         -1.77229        4.62516        0.12210
H         -0.78077        4.63636        1.63218
H          0.01670        4.78655        0.05782
H          0.43274        1.39175        0.97392
Pd        -1.64668        0.09451       -0.23160
O         -3.83387       -0.40918       -0.24960
C         -3.45740       -1.60159       -0.25198
O         -2.20321       -1.86456       -0.23319
C         -4.42366       -2.74369       -0.29875
H         -5.43958       -2.39208       -0.08379
H         -4.39883       -3.19010       -1.30442
H         -4.12108       -3.52226        0.41463
H          1.01210       -2.42466        2.24956
H         -0.59953       -1.91011        1.70559
H          0.33541       -0.88930        2.82245
