38
Azulene_H11_Int2_Sub31.log	Energy: -668142.7314382
C         -0.11119       -0.32535        0.14764
C          0.15606       -1.31568        1.10553
C          0.82776        0.36431       -0.64241
C          1.37212       -1.82308        1.57080
H         -0.73279       -1.76713        1.56030
C          2.21142        0.26943       -0.66104
H          0.41767        1.09644       -1.34872
C          2.67020       -1.50320        1.15494
H          1.29635       -2.57799        2.35813
C          3.08005       -0.61676        0.17515
C          3.07000        1.01479       -1.48231
H          3.46965       -2.03371        1.68588
C          4.41942       -0.35731       -0.21531
C          4.39407        0.63621       -1.21848
H          2.74946        1.75488       -2.21518
N          5.54072       -0.95264        0.31781
H          5.27318        1.04435       -1.71729
O         -1.72411        2.07749       -0.29368
C         -1.16919        2.74864        0.57698
O         -0.50629        2.22981        1.57210
C         -1.19573        4.23758        0.55245
H         -1.90308        4.59006       -0.20501
H         -1.46183        4.62169        1.54675
H         -0.18390        4.60335        0.32003
H         -0.43441        1.25261        1.41991
Pd        -2.01740        0.02308       -0.19628
O         -4.19354       -0.40201       -0.52141
C         -3.88549       -1.60045       -0.34065
O         -2.66802       -1.90301       -0.08110
C         -4.89039       -2.70468       -0.44651
H         -4.78133       -3.18856       -1.42926
H         -4.70113       -3.46600        0.32182
H         -5.90714       -2.30365       -0.35832
H          5.39412       -1.88792        0.67365
C          6.82961       -0.72305       -0.27016
H          7.59257       -1.28132        0.28969
H          7.09638        0.34465       -0.20887
H          6.89513       -1.02173       -1.33636
