42
Azulene_H11_Int2_Sub29.log	Energy: -682734.5423347
C         -0.36157       -0.32734        0.10270
C         -0.05723       -1.30440        1.05936
C          0.54787        0.36736       -0.71307
C          1.18336       -1.78693        1.49074
H         -0.92494       -1.77353        1.53596
C          1.93506        0.30330       -0.75502
H          0.10953        1.07591       -1.42619
C          2.46433       -1.43903        1.06359
H          1.13751       -2.55285        2.27041
C          2.84884       -0.52945        0.08242
C          2.75445        1.05739       -1.61445
H          3.28282       -1.96478        1.56622
C          4.16839       -0.23005       -0.31616
C          4.08731        0.73344       -1.34503
H          2.39591        1.76656       -2.36025
C          5.44175       -0.79756        0.24671
H          4.94839        1.16541       -1.85945
O         -1.99651        2.05550       -0.34175
C         -1.43656        2.75123        0.50576
O         -0.78280        2.25906        1.52149
C         -1.44361        4.23793        0.42899
H         -2.14623        4.57260       -0.34082
H         -1.70382        4.66094        1.40891
H         -0.42691        4.58102        0.18327
H         -0.72720        1.27860        1.40764
Pd        -2.27915        0.00430       -0.18238
O         -4.45814       -0.43198       -0.42355
C         -4.14263       -1.62631       -0.22747
O         -2.91571       -1.91947       -0.00154
C         -5.14722       -2.73383       -0.27598
H         -5.07275       -3.23520       -1.25318
H         -4.92794       -3.48049        0.49867
H         -6.16111       -2.33317       -0.15832
H          5.17096       -1.60427        0.94852
C          6.31455       -1.42016       -0.84337
H          7.22004       -1.87542       -0.41177
H          5.76692       -2.19805       -1.39581
H          6.64130       -0.66092       -1.57192
C          6.21560        0.25733        1.04088
H          5.59882        0.67666        1.84972
H          7.12711       -0.17110        1.48781
H          6.52159        1.09162        0.38926
