42
Azulene_H12_Int2_Sub21.log	Energy: -682734.7858460
C         -0.43936        0.92832       -0.32444
C         -0.44507        2.32903       -0.19419
C         -1.49767        0.09256       -0.72300
C         -1.48716        3.25404       -0.34512
H          0.52349        2.77531        0.05524
C         -2.91400        0.54398       -0.94583
C         -1.48588       -1.30438       -0.94171
C         -2.82877        3.04329       -0.64080
H         -1.19649        4.29786       -0.18656
C         -3.45501        1.82056       -0.89393
C         -3.66610       -0.60687       -1.24888
C         -2.80715       -1.70122       -1.25791
C         -0.32015       -2.25589       -0.98376
H         -3.46448        3.93179       -0.67873
H         -4.53037        1.86874       -1.09858
H         -4.73544       -0.61343       -1.45980
H         -3.10187       -2.72597       -1.49221
O          0.30850       -0.76765        1.88307
C         -0.61392       -0.40378        2.60849
O         -1.22438        0.74460        2.50430
C         -1.14530       -1.28813        3.68343
H         -0.39732       -2.04068        3.95499
H         -1.45423       -0.69752        4.55504
H         -2.03790       -1.79752        3.28647
H         -0.91615        1.22332        1.70004
Pd         1.25961        0.19137        0.29333
O          3.45328       -0.19301        0.43892
C          3.55263        0.51632       -0.58798
O          2.49790        1.03266       -1.09703
C          4.86662        0.76045       -1.26119
H          4.94072        1.80982       -1.57665
H          5.69324        0.49471       -0.59172
H          4.92159        0.13756       -2.16703
H          0.57909       -1.71130       -0.64338
C         -0.51240       -3.45026       -0.05233
H          0.36866       -4.11033       -0.07921
H         -0.65519       -3.12119        0.98693
H         -1.38803       -4.05243       -0.34432
C         -0.04389       -2.70292       -2.42043
H          0.14455       -1.83550       -3.07019
H          0.83741       -3.36274       -2.46190
H         -0.90016       -3.25691       -2.83832
