37
Azulene_H18_Int2_Sub24.log	Energy: -680601.1410574
C         -0.37192        0.16421        0.30300
C         -1.23949       -0.82794       -0.20070
C         -1.15664        1.11398        1.01446
C         -2.62453       -0.45402        0.20940
C         -0.86734       -1.95952       -0.92416
C         -2.50468        0.74009        0.96090
H         -0.75717        1.98992        1.52620
C         -3.81574       -1.09449       -0.07345
C         -1.67421       -2.96592       -1.45302
H          0.21132       -2.06806       -1.07658
O         -3.58016        1.35269        1.48679
C         -4.02375       -2.27419       -0.80178
H         -4.70715       -0.60716        0.33583
C         -3.06850       -3.09113       -1.40094
H         -1.14787       -3.76567       -1.98110
H         -5.06332       -2.59735       -0.90210
H         -3.46941       -3.97524       -1.90831
O          1.58614        2.13599       -0.45344
C          0.89386        2.59508       -1.36492
O         -0.11360        1.96871       -1.89534
C          1.16571        3.94537       -1.93576
H          0.31611        4.60706       -1.71022
H          2.08780        4.35666       -1.51279
H          1.23949        3.87257       -3.02997
H         -0.29164        1.14653       -1.35357
Pd         1.57892        0.17584        0.19885
O          3.69297       -0.51964        0.33256
C          3.20865       -1.61658        0.69047
O          1.93610       -1.74545        0.75921
C          4.06774       -2.78202        1.06789
H          4.07830       -2.87406        2.16470
H          3.64493       -3.71087        0.66214
H          5.09317       -2.63029        0.71061
C         -3.34626        2.52389        2.21577
H         -2.68813        2.33810        3.08330
H         -2.88608        3.30851        1.58798
H         -4.31962        2.88121        2.57546
