49
Azulene_H18_Int2_Sub27.log	Energy: -755935.1910122
C         -0.77702        0.26801       -0.40371
C          0.16517       -0.50879        0.31815
C         -0.04971        1.10442       -1.27947
C          1.52886       -0.09695       -0.13814
C         -0.18402       -1.47896        1.25630
C          1.32363        0.89189       -1.12459
H         -0.49393        1.81508       -1.97943
C          2.76646       -0.57361        0.32247
C          0.64294       -2.28966        2.02569
H         -1.26198       -1.62197        1.37946
H          2.09581        1.41871       -1.68138
C          2.95378       -1.56063        1.30651
C          4.03615        0.00298       -0.27388
C          2.03808       -2.30730        2.04150
H          0.14284       -2.99328        2.69658
H          3.99885       -1.79179        1.53022
H          2.48683       -3.02337        2.73811
O         -2.95596        2.14928       -0.14800
C         -2.34719        2.88058        0.63587
O         -1.28829        2.51355        1.29442
C         -2.78850        4.28274        0.88521
H         -2.02462        4.97188        0.49493
H         -3.74949        4.46969        0.39545
H         -2.86271        4.45787        1.96763
H         -1.00065        1.62097        0.94706
Pd        -2.72485        0.10625       -0.34741
O         -4.76024       -0.81427       -0.38101
C         -4.15846       -1.90683       -0.47586
O         -2.87742       -1.91823       -0.47897
C         -4.88537       -3.20775       -0.61304
H         -4.83698       -3.53152       -1.66397
H         -4.39595       -3.98092       -0.00573
H         -5.93596       -3.08896       -0.32258
H          3.75131        0.75027       -1.02716
C          4.87279       -1.05280       -1.00950
H          4.25103       -1.54660       -1.77333
H          5.18227       -1.84200       -0.30216
C          6.11315       -0.43119       -1.64195
H          6.71300       -1.20982       -2.14028
H          5.80207        0.27346       -2.43449
C          6.95463        0.31301       -0.61081
H          7.82700        0.78312       -1.09285
H          7.35722       -0.41284        0.11917
C          6.12810        1.35867        0.12979
H          5.81814        2.14668       -0.58045
H          6.73841        1.85950        0.89872
C          4.88721        0.74322        0.76722
H          5.19618        0.04151        1.56174
H          4.27579        1.51781        1.25750
