49
Azulene_H8_deriv1_Int2_Sub19.log	Energy: -1044257.4396624
C          0.53744        0.40744       -0.30548
C          0.80856        1.74082       -0.63660
C         -0.68594       -0.20752       -0.04172
C         -0.09912        2.79163       -0.74412
H          1.84890        2.00738       -0.83488
C         -1.99362        0.30632        0.00078
H         -0.61399       -1.28453        0.13260
C         -1.48537        2.80321       -0.55531
Cl         0.64141        4.31942       -1.15924
C         -2.36319        1.64282       -0.21073
C         -3.06865       -0.72089        0.29793
C         -2.31426        3.92872       -0.67020
C         -3.67383        2.16411       -0.14397
H         -1.97145        4.93070       -0.91807
C         -3.63504        3.53417       -0.41821
H         -4.57526        1.60136        0.08662
H         -4.50218        4.19587       -0.43501
O          3.25199        0.60629        0.70287
C          2.95751        1.16631        1.75897
O          1.81693        0.99413        2.36969
C          3.88150        2.12679        2.41948
H          4.89748        1.99936        2.03165
H          3.53003        3.14546        2.19059
H          3.85119        2.00089        3.50940
H          1.23155        0.45247        1.79236
Pd         2.06685       -0.81774       -0.22908
O          3.25114       -2.69241       -0.49662
C          2.20748       -3.17269       -0.99102
O          1.15555       -2.44264       -1.05450
C          2.14983       -4.56336       -1.53780
H          1.18978       -5.03158       -1.28296
H          2.21505       -4.51408       -2.63555
H          2.98879       -5.15766       -1.15688
H         -4.04236       -0.21213        0.30591
C         -2.90169       -1.36275        1.68216
H         -2.88442       -0.57518        2.45299
H         -1.92617       -1.87687        1.73639
C         -4.01285       -2.36833        1.96331
H         -3.85730       -2.83583        2.94911
H         -4.97909       -1.83515        2.02297
C         -4.09238       -3.43181        0.87360
H         -4.91989       -4.13029        1.07804
H         -3.16578       -4.03414        0.88830
C         -4.25518       -2.80120       -0.50501
H         -5.23367       -2.28988       -0.55735
H         -4.27160       -3.57897       -1.28546
C         -3.14600       -1.79651       -0.79579
H         -2.17956       -2.32520       -0.86639
H         -3.30499       -1.31273       -1.77276
