42
Azulene_H16_deriv1_Int2_Sub13.log	Energy: -971057.7418876
C          0.22027       -0.21036        0.02761
C         -0.71420       -0.99527       -0.67734
C         -0.45648        0.67024        0.91672
C         -2.00647       -0.64249       -0.24649
H         -0.48705       -1.77587       -1.40332
C         -1.83883        0.42697        0.78452
C          0.24691        1.66020        1.81074
C         -3.17562       -1.21570       -0.72420
C         -2.87378        1.05330        1.48022
C         -4.49836       -0.93848       -0.36188
H         -3.04909       -1.98983       -1.48631
C         -4.24989        0.85506        1.38431
H         -2.56650        1.80594        2.20980
C         -4.97338       -0.02048        0.57285
Cl        -5.71554       -1.87464       -1.19498
H         -4.86094        1.47638        2.04478
H         -6.06049        0.00999        0.68047
O          2.22400        1.52611       -1.13375
C          1.43236        2.10305       -1.87909
O          0.23936        1.66947       -2.16584
C          1.78683        3.40660       -2.51084
H          2.87261        3.54854       -2.49581
H          1.39230        3.45524       -3.53384
H          1.31049        4.21237       -1.93041
H          0.02962        0.85694       -1.63531
Pd         2.13923       -0.32365       -0.21868
O          4.21097       -1.14910       -0.14226
C          3.69175       -2.13388        0.42996
O          2.42669       -2.14705        0.62755
C          4.50251       -3.29450        0.91425
H          5.51529       -3.25217        0.49667
H          4.55924       -3.25641        2.01266
H          4.00835       -4.23729        0.64283
H          1.31821        1.55022        1.56945
C         -0.12400        3.11479        1.51205
H          0.52959        3.80449        2.06875
H         -0.02261        3.33875        0.43899
H         -1.16252        3.34792        1.79222
C          0.10104        1.32199        3.29563
H          0.43030        0.29101        3.49126
H          0.71219        2.00046        3.91166
H         -0.94131        1.40861        3.63941
