42
Azulene_H18_Int2_Sub13.log	Energy: -682734.5791318
C          0.36208        0.44660       -0.94980
C          1.59866       -0.06169       -0.45524
C          0.61761        1.07552       -2.19307
C          2.63015        0.29572       -1.48233
C          1.83887       -0.72590        0.76337
C          1.97140        0.99133       -2.51211
H         -0.14611        1.54917       -2.81273
C          3.99634        0.03222       -1.50229
C          3.07412       -1.23905        1.19489
C          0.68948       -0.93791        1.73617
H          2.45756        1.38814       -3.40361
C          4.77560       -0.65204       -0.57519
H          4.52063        0.41103       -2.38665
C          4.34288       -1.21960        0.62109
H          3.03619       -1.74863        2.16162
H          5.83833       -0.75569       -0.80949
H          5.11886       -1.72073        1.20916
O         -1.77055        2.08622        0.26865
C         -0.96058        2.88716        0.73881
O          0.32576        2.70780        0.73410
C         -1.41472        4.16215        1.36648
H         -0.99470        5.01070        0.80685
H         -2.50818        4.21314        1.37184
H         -1.02161        4.22253        2.39157
H          0.53315        1.87429        0.21115
Pd        -1.49054        0.14337       -0.37979
O         -3.41510       -0.93176       -0.07275
C         -2.82292       -1.93657       -0.52941
O         -1.60107       -1.83037       -0.89417
C         -3.48878       -3.27242       -0.63559
H         -3.25194       -3.73576       -1.60291
H         -3.09176       -3.93058        0.15242
H         -4.57287       -3.16956       -0.50836
H         -0.18611       -0.41474        1.31632
C          0.30314       -2.41228        1.83458
H         -0.56895       -2.52860        2.49757
H          0.03054       -2.80385        0.84416
H          1.12112       -3.02531        2.24553
C          0.96377       -0.30870        3.10071
H          1.21943        0.75757        3.00129
H          0.06739       -0.38662        3.73561
H          1.78901       -0.80413        3.63601
