30
Benzo13dioxol_H9_Int2_Sub18.log	Energy: -919035.0461916
C          0.28023       -0.18920       -0.07420
C          0.76381       -1.31818        0.62384
C          1.16356        0.67561       -0.72995
C          2.13021       -1.51230        0.63092
H          0.08779       -2.02307        1.10955
C          2.55114        0.45048       -0.70487
H          0.79651        1.53819       -1.28943
C          3.01767       -0.65260       -0.01658
O          2.84831       -2.48787        1.24945
Cl         3.64859        1.51804       -1.50232
O          4.29014       -1.06960        0.18668
C          4.17611       -2.34879        0.78448
H          4.87718       -2.42541        1.62916
H          4.39155       -3.13071        0.02948
O         -1.49931        2.11803       -0.08983
C         -0.94101        2.73009        0.82135
O         -0.21477        2.15010        1.73642
C         -1.03685        4.21045        0.94333
H         -1.80104        4.59648        0.26120
H         -1.26195        4.48580        1.98267
H         -0.05767        4.64667        0.69272
H         -0.10099        1.20218        1.48254
Pd        -1.66169        0.05644       -0.18022
O         -3.81681       -0.47525       -0.32913
C         -3.42785       -1.66463       -0.31617
O         -2.17362       -1.90747       -0.21465
C         -4.37484       -2.81467       -0.44490
H         -5.39599       -2.49455       -0.20593
H         -4.34870       -3.17882       -1.48343
H         -4.05999       -3.64104        0.20595
