30
Benzo13dioxol_H8_deriv1_Int2_Sub18.log	Energy: -1207364.5579878
C         -0.31427       -0.24168       -0.53542
C         -0.99897        0.95236       -0.39152
C         -1.08086       -1.31272       -1.04272
C         -2.34990        1.09536       -0.69612
O         -0.54231        2.16460        0.06280
C         -2.42914       -1.15382       -1.36710
H         -0.62347       -2.29297       -1.18952
C         -3.11116        0.06173       -1.19763
O         -2.71892        2.37914       -0.41570
C         -1.67513        2.89766        0.33548
Cl        -3.31186       -2.51237       -1.98634
H         -4.16838        0.17006       -1.43484
Cl        -2.07955        2.74656        2.11678
H         -1.52978        3.96500        0.14094
O          1.24433       -1.94209        1.20935
C          0.40410       -2.00887        2.10704
O         -0.55041       -1.13874        2.27815
C          0.40581       -3.12775        3.08965
H          1.31115       -3.73159        2.97220
H          0.33326       -2.72465        4.10927
H         -0.48641       -3.74921        2.91938
H         -0.54853       -0.50027        1.52869
Pd         1.59123       -0.39925       -0.11220
O          3.75557       -0.05022       -0.14708
C          3.51218        0.84462       -0.99205
O          2.29600        1.05566       -1.32975
C          4.59281        1.65259       -1.63270
H          4.74466        1.29061       -2.66098
H          4.28915        2.70627       -1.69318
H          5.52882        1.54725       -1.07162
