34
Benzo13dioxol_H9_Int2_Sub32.log	Energy: -702540.6412624
C         -0.05290       -0.32042       -0.27033
C         -1.00212        0.36483        0.52036
C         -0.45993       -1.34546       -1.13591
C         -2.31786       -0.03502        0.40698
H         -0.71349        1.19229        1.17047
C         -1.80784       -1.73047       -1.24568
H          0.28128       -1.85582       -1.75617
C         -2.71252       -1.05537       -0.45500
O         -3.41675        0.42164        1.06916
H         -2.12811       -2.52116       -1.92572
O         -4.05815       -1.23711       -0.33625
C         -4.53457       -0.16111        0.41537
H         -5.23950       -0.51272        1.19196
O         -5.12688        0.72000       -0.44404
O          2.55578       -1.63363       -0.32767
C          2.25558       -2.55429        0.43265
O          1.25982       -2.49910        1.27260
C          3.01470       -3.83558        0.44679
H          3.90304       -3.75475       -0.18764
H          3.29493       -4.08705        1.47925
H          2.36038       -4.64104        0.08068
H          0.74494       -1.67474        1.08599
Pd         1.80667        0.29332       -0.19560
O          3.52573        1.71207       -0.06046
C          2.65506        2.60527        0.03615
O          1.41733        2.27475        0.03019
C          3.00947        4.05585        0.12957
H          4.05643        4.17255        0.43387
H          2.87138        4.51764       -0.86012
H          2.33755        4.56681        0.83183
C         -5.76412        1.80281        0.18579
H         -6.53203        1.45712        0.90326
H         -5.04238        2.44167        0.72093
H         -6.25420        2.39136       -0.59953
