33
Benzo13dioxol_H8_deriv1_Int2_Sub14.log	Energy: -943689.6052771
C          0.34433       -0.06676       -0.14691
C          0.88700       -1.08446        0.62040
C          1.26853        0.64098       -0.94910
C          2.25041       -1.38534        0.61335
O          0.26543       -1.89590        1.52241
C          2.62443        0.32586       -0.94479
H          0.92675        1.45115       -1.59615
C          3.17947       -0.70725       -0.15657
O          2.48912       -2.39384        1.49523
C          1.21032       -2.88975        1.85114
Cl         3.69692        1.24358       -1.96121
C          4.63488       -1.04465       -0.13799
H          1.17974       -3.09177        2.93187
H          0.99828       -3.81306        1.27547
O         -1.40511        2.24641        0.27165
C         -0.68134        2.76504        1.12215
O          0.27092        2.13289        1.74602
C         -0.83500        4.19721        1.50285
H         -1.74182        4.61233        1.05166
H         -0.86548        4.28808        2.59747
H          0.04779        4.75344        1.15282
H          0.37403        1.23677        1.33576
Pd        -1.59068        0.25068       -0.21888
O         -3.73856       -0.13260       -0.51767
C         -3.40160       -1.31242       -0.77671
O         -2.16303       -1.62722       -0.72528
C         -4.39720       -2.35677       -1.16786
H         -4.32861       -2.52403       -2.25359
H         -4.16200       -3.30702       -0.67002
H         -5.41232       -2.02603       -0.91828
H          4.99017       -1.30243       -1.14755
H          4.82664       -1.89266        0.53165
H          5.23480       -0.18518        0.19941
