35
Benzoisoxazole_H8_deriv1_Int2_Sub6.log	Energy: -666787.2189672
C          0.55523        0.47059       -0.08979
C          1.49921       -0.11825       -0.95718
C          0.97435        1.55742        0.68835
C          2.80431        0.37215       -1.02816
C          1.53217       -1.20594       -1.88973
C          2.32240        2.03882        0.59542
C          0.02676        2.25049        1.62856
C          3.24478        1.44846       -0.26171
O          3.51425       -0.35371       -1.90662
H          0.73068       -1.88684       -2.17674
N          2.70689       -1.33396       -2.43506
C          2.74618        3.20564        1.43798
H          4.27179        1.80986       -0.33101
O         -0.53649       -2.13091        0.50089
C          0.33385       -2.41433        1.32532
O          1.08958       -1.53450        1.91764
C          0.61226       -3.82893        1.69877
H          0.78268       -3.90904        2.78042
H         -0.21282       -4.47352        1.37864
H          1.53912       -4.14192        1.19289
H          0.93991       -0.64578        1.50559
Pd        -1.25675       -0.27379       -0.04708
O         -3.46214       -0.43232       -0.25076
C         -3.42960        0.78031       -0.56102
O         -2.30176        1.38786       -0.57691
C         -4.66051        1.54192       -0.93586
H         -5.55765        0.97746       -0.65584
H         -4.65361        2.52887       -0.45378
H         -4.65972        1.70561       -2.02421
H          3.80295        3.45411        1.27216
H          2.60854        3.00061        2.51172
H          2.14630        4.10154        1.21095
H         -0.08130        3.31505        1.36671
H          0.38261        2.21311        2.67136
H         -0.97306        1.80145        1.58260
