31
Benzene_H10_Int2_Sub100.log	Energy: -584302.0784097
C         -0.72736        0.09111        0.44048
C         -1.57030       -0.76901       -0.27082
C         -1.28933        1.00515        1.34591
C         -2.95962       -0.72083       -0.09904
H         -1.13323       -1.50518       -0.95312
C         -2.67143        1.04860        1.52045
H         -0.64722        1.68034        1.91822
C         -3.50648        0.19522        0.79964
C         -3.83590       -1.67984       -0.85890
H         -3.10496        1.75842        2.23034
H         -4.58947        0.22662        0.92470
O          1.45550        1.99320        0.19576
C          0.85830        2.77997       -0.53848
O         -0.16670        2.44750       -1.27327
C          1.25895        4.21098       -0.64065
H          2.20598        4.37572       -0.11697
H          1.34180        4.49835       -1.69797
H          0.46842        4.83273       -0.19378
H         -0.43837        1.52773       -1.03418
Pd         1.20525       -0.06473        0.18857
O          3.20350       -1.04098       -0.09297
C          2.56820       -2.11803       -0.07205
O          1.29399       -2.09327        0.05711
C          3.25224       -3.44636       -0.16362
H          4.26060       -3.32707       -0.57760
H          3.32997       -3.87405        0.84776
H          2.65756       -4.13955       -0.77319
H         -3.62710       -2.70399       -0.48628
H         -3.53002       -1.66807       -1.92501
O         -5.18374       -1.33886       -0.70050
H         -5.71958       -2.02673       -1.10377
