46
Benzoisoxazole_H9_deriv1_Int2_Sub7.log	Energy: -775442.9761678
C          0.01104        0.26393       -0.15816
C          0.42370        1.33842       -0.97522
C          0.96348       -0.43630        0.62882
C          1.82088        1.61099       -0.95568
N         -0.36616        2.08339       -1.80234
C          2.33122       -0.18342        0.67575
H          0.57850       -1.25246        1.24410
C          2.70673        0.88162       -0.16141
C          2.68095        2.55001       -1.60580
C          3.33223       -0.95966        1.52116
O          3.95216        1.36219       -0.34645
H          2.44544        3.33374       -2.32691
N          3.92199        2.39867       -1.24496
O         -1.67412       -2.09059       -0.76601
C         -0.92949       -2.47130       -1.67040
O          0.06616       -1.77536       -2.13206
C         -1.11516       -3.80435       -2.31317
H         -2.04125       -4.26931       -1.96026
H         -1.12794       -3.68894       -3.40600
H         -0.25445       -4.44288       -2.06344
H          0.16143       -0.95083       -1.57201
Pd        -1.85997       -0.26362        0.18892
O         -3.92104       -0.20303        1.02987
C         -3.60968        0.92376        1.47713
O         -2.44473        1.39543        1.22914
C         -4.54906        1.73615        2.31178
H         -4.54573        2.78133        1.97347
H         -5.56063        1.31593        2.26612
H         -4.19778        1.72714        3.35472
C          2.64499       -2.05728        2.33214
H          3.39367       -2.59501        2.93338
H          1.89445       -1.64600        3.02442
H          2.14806       -2.79567        1.68380
C          4.37558       -1.60933        0.59902
H          4.91787       -0.85530        0.01148
H          5.11275       -2.17258        1.19334
H          3.89417       -2.30949       -0.10143
C          4.02959        0.00508        2.49254
H          4.76391       -0.53848        3.10833
H          4.56137        0.80218        1.95441
H          3.29760        0.47490        3.16724
H          0.09280        2.86287       -2.24754
C         -1.80248        2.08160       -1.86626
H         -2.27480        2.42912       -0.93270
H         -2.19453        1.07334       -2.08369
H         -2.11192        2.74017       -2.68963
