29
Benzoisoxazole_H11_deriv1_Int2_Sub18.log	Energy: -1194123.0326093
C          0.04853        0.41683       -0.02964
C          1.28148       -0.19034       -0.30850
C          0.13919        1.76734        0.31376
C          2.50696        0.47815       -0.23257
O          1.50789       -1.47961       -0.65760
C          1.37234        2.45086        0.38673
H         -0.77573        2.32852        0.51602
C          2.58127        1.82936        0.11833
C          3.44014       -0.55641       -0.56597
N          2.85377       -1.69163       -0.80651
Cl         1.35951        4.12723        0.82818
H          3.53060        2.36140        0.17980
Cl         5.13266       -0.39641       -0.64880
O         -1.06673       -2.31300       -0.00274
C         -0.35733       -2.73375        0.91040
O          0.01235       -1.99311        1.92254
C          0.17147       -4.12018        0.91421
H          0.24819       -4.50940        1.93674
H         -0.45244       -4.76190        0.28322
H          1.18480       -4.07347        0.48288
H         -0.29327       -1.07380        1.75878
Pd        -1.74582       -0.38530       -0.15963
O         -3.92912       -0.49569       -0.37049
C         -3.90642        0.75514       -0.43521
O         -2.77496        1.35015       -0.33186
C         -5.13808        1.56847       -0.65637
H         -5.09265        2.49386       -0.06727
H         -5.18812        1.85008       -1.71944
H         -6.02965        0.98340       -0.40137
