46
Benzo13dioxol_H8_deriv1_Int2_Sub27.log	Energy: -1066193.4349385
C         -1.06168        0.54851       -0.15729
C          0.06162        0.99400        0.51766
C         -1.77988        1.52941       -0.87949
C          0.49922        2.32018        0.46312
O          0.90034        0.29169        1.32303
C         -1.35109        2.85425       -0.90427
H         -2.67417        1.25635       -1.44296
C         -0.19117        3.28767       -0.23769
O          1.63509        2.44364        1.19038
C          2.05539        1.10295        1.46982
Cl        -2.26653        4.02291       -1.80649
H          0.13942        4.32463       -0.28029
H          2.38539        1.05768        2.52025
C          3.14348        0.66214        0.50797
O         -3.39315       -1.18254        0.29520
C         -3.86256       -0.48084        1.19234
O         -3.18342        0.42817        1.83048
C         -5.28390       -0.61361        1.61777
H         -5.74158       -1.48526        1.13933
H         -5.33581       -0.69592        2.71231
H         -5.82607        0.30070        1.33274
H         -2.29900        0.52566        1.39487
Pd        -1.41847       -1.37656       -0.26005
O         -1.01134       -3.52590       -0.61274
C          0.15975       -3.16829       -0.87628
O          0.45205       -1.92260       -0.82821
C          1.23953       -4.14793       -1.20673
H          1.93529       -3.71699       -1.93842
H          1.80739       -4.36632       -0.28888
H          0.80390       -5.08237       -1.58061
H          2.72574        0.80155       -0.50763
C          3.46287       -0.82179        0.68452
H          2.54681       -1.40873        0.52455
H          3.79226       -0.99813        1.72626
C          4.55972       -1.26567       -0.27607
H          4.80275       -2.32736       -0.10687
H          4.17483       -1.19750       -1.30961
C          5.81170       -0.40473       -0.14556
H          6.57365       -0.71790       -0.87766
H          6.25765       -0.56324        0.85348
C          5.48712        1.07555       -0.31780
H          5.14886        1.25482       -1.35425
H          6.39205        1.68837       -0.17737
C          4.39439        1.52629        0.64525
H          4.76896        1.44976        1.68367
H          4.13853        2.58433        0.48074
