33
Benzo13dioxol_H8_deriv1_Int2_Sub17.log	Energy: -1130433.0716356
C         -0.08111        0.65782       -0.53030
C          0.96536       -0.22951       -0.70483
C          0.21918        2.01194       -0.80541
C          2.23775        0.17186       -1.10595
O          0.97144       -1.58887       -0.52496
C          1.48997        2.40058       -1.22271
H         -0.55061        2.77776       -0.69362
C          2.54480        1.48525       -1.38391
O          3.05300       -0.91977       -1.17195
C          2.31268       -1.98224       -0.61703
Cl         1.80023        4.07665       -1.54517
H          3.53898        1.80049       -1.69710
C          2.84568       -2.29392        0.78784
H          2.41032       -2.88424       -1.24286
O         -1.93442        1.28938        1.62401
C         -1.06437        1.49401        2.47094
O          0.16425        1.07340        2.36726
C         -1.35335        2.27009        3.70874
H         -2.42750        2.46417        3.79024
H         -0.98779        1.71733        4.58526
H         -0.80045        3.22080        3.66789
H          0.29354        0.67604        1.47355
Pd        -1.87275        0.04744       -0.02079
O         -3.78667       -1.02418       -0.08031
C         -3.34831       -1.57506       -1.11859
O         -2.17533       -1.26924       -1.52841
C         -4.15706       -2.55553       -1.90368
H         -4.53005       -2.06066       -2.81331
H         -3.52590       -3.39725       -2.21876
H         -5.00888       -2.90697       -1.30958
F          2.71460       -1.23613        1.58885
F          4.13032       -2.62447        0.73268
F          2.16899       -3.30723        1.31698
