36
Benzothiophene_H13_deriv1_Int2_Sub22.log	Energy: -1046111.0787320
C          0.16411        0.61746       -0.89720
C          1.50100        0.11764       -0.58709
C          0.18735        1.41985       -2.00863
C          2.44592        0.57174       -1.54361
C          1.97814       -0.70202        0.47621
H         -0.66982        1.90427       -2.47773
S          1.74308        1.60123       -2.74613
C          3.79009        0.20579       -1.49385
C          3.32145       -1.10464        0.51781
C          0.99857       -1.10664        1.55133
C          4.20070       -0.63578       -0.48141
H          4.49649        0.56702       -2.24417
C          3.91981       -2.01639        1.55875
H          5.24571       -0.95060       -0.43942
O         -1.84158        1.63460        1.12339
C         -1.12734        2.58548        1.43676
O         -0.01242        2.88823        0.83968
C         -1.49106        3.47897        2.57350
H         -2.52819        3.30054        2.87556
H         -0.82055        3.25324        3.41713
H         -1.33304        4.52989        2.29711
H          0.15859        2.22526        0.11766
Pd        -1.60706        0.08060       -0.21145
O         -3.45766       -1.08063       -0.04516
C         -2.95750       -1.84619       -0.90471
O         -1.80680       -1.56493       -1.38484
C         -3.65004       -3.09022       -1.35873
H         -3.49178       -3.24163       -2.43465
H         -3.21038       -3.95029       -0.83071
H         -4.71971       -3.03679       -1.12315
F          1.56749       -1.68236        2.61241
F          0.07960       -1.96712        1.10202
F          0.34325       -0.03359        2.03165
H          3.35520       -2.95191        1.66843
H          3.95135       -1.54462        2.55117
H          4.94878       -2.27217        1.27348
