35
Benzofuran_H14_Int2_Sub15.log	Energy: -666805.4776165
C          0.10172       -0.08065       -0.22447
C          1.03090       -0.89328        0.37011
O          0.72952        0.87016       -0.99212
C          2.32358       -0.42714       -0.06200
H          0.78989       -1.72915        1.02362
C          2.06813        0.66695       -0.89871
C          3.66060       -0.82384        0.18405
C          3.05795        1.42448       -1.51994
C          4.66778       -0.07094       -0.43774
N          3.92053       -1.88772        1.01063
C          4.36393        1.02497       -1.26128
H          2.81501        2.26789       -2.16617
H          5.71391       -0.33822       -0.28559
H          5.19013        1.57438       -1.71931
O         -1.79899        2.00061        0.02382
C         -1.07680        2.66122        0.77181
O         -0.16545        2.14845        1.54834
C         -1.18491        4.14490        0.83430
H         -0.32481        4.57259        0.29602
H         -2.11444        4.47575        0.35986
H         -1.12652        4.48620        1.87622
H         -0.06444        1.18365        1.34464
Pd        -1.83119       -0.04982       -0.12198
O         -3.92111       -0.71637       -0.04984
C         -3.46654       -1.88082       -0.15064
O         -2.19855       -2.04407       -0.20631
C         -4.35741       -3.07734       -0.23831
H         -4.44971       -3.37109       -1.29524
H         -3.91521       -3.92184        0.30633
H         -5.35394       -2.83717        0.15118
H          3.14354       -2.50996        1.17888
C          5.23315       -2.44040        1.16629
H          5.18776       -3.29345        1.85650
H          5.92559       -1.70171        1.60373
H          5.67813       -2.79083        0.21399
