33
Benzofuran_H13_deriv1_Int2_Sub30.log	Energy: -920413.2983006
C         -0.33874       -0.37201       -0.30038
C         -1.63419        0.16421        0.08149
C         -0.66102       -1.49529       -1.01161
C         -2.59849       -0.71688       -0.43177
C         -2.07149        1.28748        0.79652
Cl         0.33198       -2.64478       -1.78331
O         -1.99327       -1.73506       -1.10159
C         -3.96684       -0.55064       -0.26432
C         -3.43587        1.46881        0.97067
H         -1.34752        2.00618        1.18413
C         -4.39380        0.56704        0.45432
H         -4.67463       -1.26830       -0.68351
H         -3.79003        2.34371        1.52285
C         -5.85672        0.82264        0.67823
O          2.37593       -1.20851        0.48627
C          1.97533       -2.11377        1.21983
O          0.76185       -2.18329        1.68299
C          2.86825       -3.23752        1.61462
H          3.91512       -2.96764        1.44123
H          2.69472       -3.51285        2.66291
H          2.60831       -4.10807        0.99210
H          0.21409       -1.49191        1.22337
Pd         1.39049        0.51575       -0.03551
O          2.88490        2.11389        0.06070
C          1.96170        2.88722       -0.28915
O          0.79075        2.40165       -0.46982
C          2.18912        4.34370       -0.52873
H          1.32902        4.92561       -0.17222
H          3.11433        4.66874       -0.03810
H          2.28137        4.51253       -1.61262
H         -6.16235        1.78916        0.24647
H         -6.09495        0.86059        1.75330
H         -6.47862        0.03941        0.22307
