35
Benzoisoxazole_H8_deriv1_Int2_Sub17.log	Energy: -853528.8082440
C          0.14401       -0.22061       -0.08908
C         -0.71284        0.66808       -0.76173
C         -0.46622       -1.26759        0.59838
C         -2.10470        0.49944       -0.70911
C         -0.57362        1.83323       -1.58427
C         -1.86747       -1.44524        0.65555
H          0.16068       -2.00423        1.10740
C         -2.71895       -0.54369       -0.00436
O         -2.69299        1.47516       -1.41899
H          0.33782        2.33088       -1.91427
N         -1.72916        2.29406       -1.95775
C         -2.41019       -2.61679        1.42342
C         -4.21534       -0.69723        0.05780
O          1.95769        1.99874        0.19054
C          1.33823        2.54837        1.10332
O          0.59275        1.90230        1.95624
C          1.36467        4.02404        1.28357
H          1.37438        4.28120        2.35039
H          2.22680        4.45237        0.76179
H          0.43842        4.43305        0.84874
H          0.52860        0.96158        1.67126
Pd         2.08748       -0.04438       -0.09631
O          4.22078       -0.61248       -0.20701
C          3.80863       -1.78727       -0.34481
O          2.54500       -2.00345       -0.32671
C          4.73543       -2.93897       -0.55895
H          5.74865       -2.67651       -0.23221
H          4.36834       -3.82677       -0.02748
H          4.75784       -3.17779       -1.63336
H         -3.15324       -2.30005        2.16859
H         -1.60141       -3.14901        1.93985
H         -2.91549       -3.32482        0.75034
F         -4.84861        0.22217       -0.66016
F         -4.66635       -0.59651        1.31826
F         -4.60804       -1.89603       -0.39449
