43
Benzene_H10_Int2_Sub65.log	Energy: -659630.0883958
C          0.64983        0.72541       -0.99169
C          1.60802        1.23651       -1.88095
C         -0.55138        1.42906       -0.76931
C          1.38293        2.43145       -2.56063
H          2.54082        0.68964       -2.04563
C         -0.75303        2.63460       -1.46088
C         -1.61362        0.88785        0.15974
C          0.19636        3.13292       -2.34696
H          2.13445        2.81496       -3.25545
H         -1.68060        3.19136       -1.30176
H          0.01099        4.07294       -2.87215
O          2.53021       -0.23666        1.02633
C          2.64773        0.85381        1.58357
O          1.86520        1.87378        1.37013
C          3.73613        1.10581        2.57098
H          4.27452        0.17698        2.78470
H          4.42650        1.85654        2.15802
H          3.30838        1.52828        3.49102
H          1.24237        1.66217        0.62773
Pd         0.98672       -0.99836       -0.12300
O          0.74006       -3.17943        0.36926
C         -0.20556       -3.15431       -0.44817
O         -0.48508       -2.06053       -1.05419
C         -1.03698       -4.36272       -0.74781
H         -0.96813       -4.59776       -1.81984
H         -0.69770       -5.21791       -0.15202
H         -2.09230       -4.14297       -0.52982
H         -1.15578        0.04155        0.70460
C         -2.79824        0.30978       -0.62402
H         -2.42202       -0.44205       -1.33315
H         -3.26513        1.11703       -1.21785
C         -3.83084       -0.30650        0.31174
H         -4.68983       -0.68446       -0.26635
H         -3.37952       -1.18579        0.80665
C         -4.29719        0.68550        1.37184
H         -5.01007        0.20670        2.06285
H         -4.84740        1.50832        0.87960
C         -3.11917        1.26820        2.14572
H         -2.63412        0.46336        2.72753
H         -3.46962        2.01245        2.87935
C         -2.09005        1.89445        1.21073
H         -2.54077        2.77052        0.71103
H         -1.22721        2.27445        1.78343
