46
Benzo13dioxol_H8_deriv1_Int2_Sub11.log	Energy: -1066187.6560845
C         -0.70234        0.09570       -0.20120
C          0.08462       -0.75016        0.56384
C          0.00916        0.95397       -1.06638
C          1.47796       -0.74670        0.49411
O         -0.30779       -1.64023        1.51913
C          1.40206        0.94464       -1.12491
H         -0.52939        1.64579       -1.71669
C          2.20880        0.08917       -0.33916
O          1.96518       -1.64680        1.39614
C          0.84100       -2.39591        1.82474
Cl         2.15852        2.05551       -2.23530
C          3.71303        0.07428       -0.36723
H          0.90172       -2.56415        2.90980
H          0.81195       -3.36089        1.28012
O         -2.88675        1.99421        0.25351
C         -2.25120        2.69001        1.04598
O         -1.15281        2.30447        1.62976
C         -2.69455        4.06841        1.39679
H         -3.69258        4.25888        0.98952
H         -2.68674        4.19326        2.48845
H         -1.97447        4.78881        0.97993
H         -0.87650        1.43749        1.23816
Pd        -2.66077       -0.01173       -0.17457
O         -4.68735       -0.85634       -0.34358
C         -4.11706       -1.94564       -0.59011
O         -2.83871       -1.98603       -0.59946
C         -4.88194       -3.19259       -0.89813
H         -4.83235       -3.38131       -1.98137
H         -4.42316       -4.05142       -0.39012
H         -5.93099       -3.07774       -0.60071
H          4.02835        0.81489       -1.11909
C          4.27071       -1.28682       -0.80480
H          3.85821       -1.55093       -1.79179
H          3.92687       -2.06084       -0.09822
C          5.79445       -1.27218       -0.84616
H          6.17383       -2.26611       -1.13408
H          6.13001       -0.57232       -1.63300
C          6.38670       -0.84202        0.49160
H          7.48675       -0.80820        0.43216
H          6.13873       -1.59941        1.25730
C          5.83606        0.51040        0.93066
H          6.17447        1.28710        0.22093
H          6.24402        0.79184        1.91515
C          4.31253        0.50553        0.97862
H          3.96767       -0.18770        1.76465
H          3.93020        1.50410        1.24543
