33
Benzofuran_H13_Int2_Sub6.log	Energy: -632097.1569741
C         -0.69717        0.24826        0.40064
C         -1.79577       -0.50584       -0.17616
C         -1.28790        1.11974        1.28177
C         -2.96420        0.01218        0.40873
C         -1.90521       -1.54489       -1.10870
C         -0.73409        2.14328        2.19674
O         -2.65037        0.99578        1.28790
C         -4.24052       -0.44253        0.10320
C         -3.17424       -2.01635       -1.42554
H         -1.00754       -1.97782       -1.55407
C         -4.32574       -1.47197       -0.83096
H         -5.12384       -0.01208        0.57777
H         -3.28237       -2.82946       -2.14709
H         -5.30752       -1.86629       -1.10327
O          1.73860        1.81116       -0.24742
C          1.11806        2.67049       -0.87828
O         -0.13054        2.55601       -1.21607
C          1.77461        3.93934       -1.30301
H          2.83232        3.93116       -1.02142
H          1.66691        4.05604       -2.39100
H          1.25887        4.78936       -0.83261
H         -0.49893        1.73005       -0.78438
Pd         1.20351       -0.14491        0.11601
O          3.05443       -1.32893       -0.07725
C          2.33705       -2.32576        0.17291
O          1.08331       -2.15190        0.36610
C          2.89860       -3.70680        0.27858
H          2.22107       -4.42748       -0.19847
H          3.89597       -3.74732       -0.17509
H          2.97583       -3.97744        1.34271
H          0.36015        2.16243        2.11897
H         -1.00360        1.91849        3.24090
H         -1.13347        3.14431        1.96489
