33
Benzoisoxazole_H11_deriv1_Int2_Sub24.log	Energy: -977624.3265420
C         -0.00611        0.46894       -0.02248
C          1.27978       -0.02563       -0.28673
C         -0.04839        1.82585        0.30690
C          2.43459        0.75670       -0.20574
O          1.62299       -1.29152       -0.61827
C          1.11336        2.62189        0.38276
H         -1.01446        2.29932        0.49502
C          2.37756        2.11164        0.13124
C          3.47302       -0.18584       -0.51802
N          2.99469       -1.37675       -0.75039
Cl         0.94124        4.29621        0.80613
H          3.27087        2.73243        0.19643
O          4.76062        0.11056       -0.56134
O         -0.85294       -2.34953        0.07105
C         -0.09537       -2.66331        0.98815
O          0.20100       -1.85885        1.97520
C          0.57819       -3.98526        1.02708
H          0.70215       -4.33429        2.05947
H          0.02324       -4.70817        0.41995
H          1.57740       -3.83961        0.58506
H         -0.18782       -0.97729        1.78040
Pd        -1.71411       -0.50247       -0.15466
O         -3.87976       -0.82362       -0.39430
C         -3.96972        0.42148       -0.49528
O         -2.90112        1.12255       -0.39382
C         -5.26775        1.11133       -0.75777
H         -5.31866        2.05165       -0.19323
H         -5.32445        1.36021       -1.82863
H         -6.10603        0.45287       -0.50089
C          5.63831       -0.94941       -0.89193
H          5.56498       -1.76244       -0.15286
H          5.39746       -1.36041       -1.88459
H          6.64923       -0.52591       -0.89056
