33
Benzofuran_H13_Int2_Sub14.log	Energy: -632093.1973517
C          0.65426        0.24328       -0.69407
C          1.80581       -0.37456       -0.05179
C          1.16931        0.84962       -1.80718
C          2.90897       -0.05574       -0.86413
C          2.00008       -1.13961        1.11759
H          0.70127        1.42201       -2.60551
O          2.51460        0.68606       -1.92643
C          4.21369       -0.45040       -0.58915
C          3.30696       -1.53703        1.39509
C          0.85404       -1.51915        2.00303
C          4.39099       -1.20331        0.56461
H          5.03977       -0.17952       -1.24800
H          3.49389       -2.13360        2.29188
H          5.39310       -1.54460        0.83451
O         -1.55765        2.04045        0.14566
C         -0.79538        2.91278        0.56653
O          0.49254        2.76802        0.65622
C         -1.31283        4.23773        1.01272
H         -2.40602        4.25443        0.95973
H         -0.97319        4.43280        2.04008
H         -0.88671        5.02595        0.37473
H          0.74237        1.89602        0.23934
Pd        -1.24217        0.04369       -0.23506
O         -3.18932       -0.92949        0.10438
C         -2.60936       -2.00162       -0.18629
O         -1.36442       -1.96772       -0.48703
C         -3.31172       -3.32049       -0.17130
H         -2.95070       -3.90793        0.68646
H         -4.39451       -3.17375       -0.08308
H         -3.06857       -3.88477       -1.08199
H          0.13722       -2.15171        1.45657
H          0.29608       -0.62957        2.33924
H          1.20124       -2.06281        2.89246
