45
Benzooxazole_H10_Int2_Sub3.log	Energy: -764658.2536611
C          0.79618        0.32679       -0.40356
C          0.86025       -1.05100       -0.05194
C          1.91248        1.00828       -0.91170
C          2.05736       -1.75929       -0.21688
C         -0.37280       -1.76270        0.46249
C          3.07119        0.26493       -1.06628
H          1.87315        2.06614       -1.17867
C          3.16670       -1.09186       -0.73055
H          2.13178       -2.81676        0.04381
O          4.28981        0.65292       -1.53099
N          4.46069       -1.51999       -0.99863
C          5.04586       -0.47104       -1.45556
H          6.07812       -0.37475       -1.79119
O         -0.22081        2.45122        1.33636
C          0.50023        2.15648        2.28880
O          1.18249        1.04963        2.37540
C          0.66222        3.07543        3.45130
H          0.46575        2.52685        4.38330
H          1.70574        3.42191        3.49144
H         -0.01548        3.92957        3.35479
H          1.10082        0.54322        1.52685
Pd        -0.89294        1.31462       -0.25372
O         -2.98655        1.94753       -0.71221
C         -2.95594        1.07090       -1.60427
O         -1.88847        0.38125       -1.76727
C         -4.12764        0.78902       -2.49086
H         -4.43083       -0.26130       -2.37016
H         -4.96322        1.45380       -2.24336
H         -3.83347        0.92444       -3.54163
H         -1.11240       -0.97752        0.70816
C         -0.13735       -2.57187        1.74044
H          0.29462       -1.92326        2.52111
H          0.60772       -3.36431        1.54817
C         -1.43080       -3.21323        2.23167
H         -1.23870       -3.81031        3.13794
H         -2.13769       -2.41708        2.52849
C         -2.07358       -4.07553        1.15036
H         -3.02403       -4.49954        1.51327
H         -1.41272       -4.93496        0.93473
C         -2.29641       -3.28371       -0.13354
H         -3.04600       -2.49224        0.05009
H         -2.71877       -3.93273       -0.91789
C         -1.00990       -2.63332       -0.62758
H         -0.28697       -3.41323       -0.92963
H         -1.20672       -2.01046       -1.51249
