41
Benzoisoxazole_H8_deriv1_Int2_Sub29.log	Energy: -716086.0921550
C          0.09701       -0.32380       -0.11544
C          0.20862       -1.57359       -0.76116
C          1.24091        0.15688        0.51523
C          1.42207       -2.27131       -0.73467
C         -0.63118       -2.45222       -1.51999
C          2.46834       -0.55680        0.53076
H          1.20476        1.13414        1.00549
C          2.56712       -1.79502       -0.09738
O          1.28822       -3.42967       -1.40111
H         -1.67274       -2.32011       -1.81250
N          0.00479       -3.52728       -1.88496
C          3.66447        0.06715        1.19428
H          3.49638       -2.36664       -0.09960
O         -2.66474       -0.97836        0.35768
C         -2.43565       -1.75825        1.28375
O         -1.37560       -1.69030        2.03932
C         -3.35647       -2.88443        1.59594
H         -3.43269       -3.02784        2.68139
H         -4.33912       -2.70370        1.14795
H         -2.92498       -3.80284        1.16670
H         -0.75888       -1.01698        1.66380
Pd        -1.55831        0.71020       -0.09326
O         -2.92421        2.45561       -0.23312
C         -1.89267        3.12587       -0.46605
O         -0.75633        2.53375       -0.47567
C         -1.94376        4.59023       -0.76288
H         -2.89319        5.01518       -0.41602
H         -1.09110        5.10255       -0.29802
H         -1.86567        4.73230       -1.85171
H          4.45096       -0.69387        1.33246
H          3.38024        0.41187        2.20295
C          4.25284        1.25718        0.41824
H          3.44669        2.00481        0.30293
C          5.38221        1.89975        1.21373
H          5.78730        2.77960        0.69068
H          5.04229        2.22624        2.20910
H          6.21295        1.18944        1.36100
C          4.71415        0.85079       -0.97528
H          3.89013        0.42726       -1.56864
H          5.11549        1.71568       -1.52529
H          5.51286        0.09166       -0.91912
