36
Benzothiophene_H13_deriv1_Int2_Sub6.log	Energy: -1046118.0010651
C         -0.43122       -0.80738       -0.31628
C         -1.64072       -0.01405       -0.46862
C         -0.63174       -2.11673       -0.68518
C         -2.72040       -0.79456       -0.96501
C         -1.91685        1.34948       -0.19327
C          0.37559       -3.21664       -0.74135
S         -2.25732       -2.44300       -1.22518
C         -3.99545       -0.27388       -1.19589
C         -3.18513        1.86510       -0.42902
C         -0.87214        2.27727        0.36603
C         -4.22015        1.06572       -0.92977
H         -4.79309       -0.91383       -1.57929
H         -3.37438        2.91676       -0.21429
H         -5.20523        1.50250       -1.10478
O          1.35568       -0.41650        2.08275
C          0.48916       -0.83849        2.84786
O         -0.63070       -1.37029        2.45771
C          0.66081       -0.74687        4.32576
H          1.70951       -0.55027        4.57188
H          0.04167        0.08813        4.68926
H          0.30194       -1.66383        4.81099
H         -0.67616       -1.33906        1.46100
Pd         1.41603       -0.20167        0.03630
O          3.45276        0.49424       -0.41702
C          3.09288        0.49267       -1.61827
O          1.90899        0.10327       -1.90769
C          3.99006        0.96130       -2.71776
H          3.85547        0.33666       -3.61066
H          3.70990        1.99198       -2.98432
H          5.03506        0.95140       -2.38550
F         -1.36589        3.49277        0.61845
F          0.16095        2.44627       -0.46379
F         -0.37708        1.81975        1.52985
H         -0.09102       -4.20875       -0.65603
H          1.11281       -3.10157        0.06641
H          0.92944       -3.17766       -1.69362
