49
Benzothiophene_H9_deriv1_Int2_Sub19.log	Energy: -981873.5341954
C          0.87659        0.46058        0.58299
C         -0.26383       -0.09489       -0.02049
C          0.67720        1.49766        1.49194
C         -1.56954        0.37172        0.26700
S         -0.29509       -1.37234       -1.20200
C         -0.61151        1.98190        1.81242
H          1.54340        1.95764        1.97791
C         -1.72126        1.41840        1.19344
C         -2.58130       -0.32953       -0.49195
C         -2.02000       -1.26758       -1.31010
C         -0.75935        3.09137        2.81365
H         -2.71978        1.79713        1.42667
C         -4.05165       -0.06059       -0.33923
H         -2.54338       -1.93775       -1.99096
O          3.27446        1.57842       -0.63259
C          2.67267        2.37278       -1.35425
O          1.39726        2.30849       -1.61116
C          3.37745        3.51220       -2.00810
H          4.45473        3.44334       -1.82690
H          3.16419        3.50522       -3.08638
H          2.98367        4.45679       -1.60420
H          0.98628        1.59960       -1.05842
Pd         2.65437       -0.23011        0.15297
O          4.34803       -1.66287       -0.01678
C          3.57259       -2.49196        0.51192
O          2.38499       -2.12730        0.82021
C          3.98969       -3.89645        0.81371
H          4.95546       -4.11665        0.34406
H          4.07469       -4.01859        1.90397
H          3.21885       -4.59691        0.46392
H         -0.15650        3.96921        2.53186
H         -0.41628        2.77283        3.81124
H         -1.80557        3.41493        2.90600
H         -4.17573        1.03847       -0.28184
C         -4.59336       -0.64716        0.97446
H         -3.99655       -0.28449        1.82598
H         -4.45158       -1.74221        0.94534
C         -6.06877       -0.31997        1.17267
H         -6.43632       -0.77845        2.10499
H         -6.18361        0.77221        1.29905
C         -6.90861       -0.77813       -0.01450
H         -7.96333       -0.49053        0.12492
H         -6.89164       -1.88211       -0.06371
C         -6.37107       -0.21293       -1.32487
H         -6.49538        0.88525       -1.32607
H         -6.95908       -0.59063       -2.17691
C         -4.89607       -0.54836       -1.51582
H         -4.78779       -1.64441       -1.60670
H         -4.51564       -0.11574       -2.45528
