49
Benzothiophene_H9_deriv1_Int2_Sub3.log	Energy: -981870.1146830
C          0.62737        0.40843       -0.34985
C          1.95597        0.58951       -0.75816
C         -0.23444        1.51842       -0.30165
C          2.45890        1.85131       -1.13907
S          3.18637       -0.63915       -0.86069
C          0.26003        2.80408       -0.68921
C         -1.67055        1.25891        0.12005
C          1.58118        2.94506       -1.09822
C          3.84497        1.78415       -1.50993
C          4.35052        0.52485       -1.40345
C         -0.59110        4.04564       -0.65806
H          1.94563        3.93308       -1.39214
H          4.42928        2.64442       -1.83977
H          5.36703        0.20030       -1.62497
O          1.17070       -1.48027        1.80808
C          1.51249       -0.60030        2.59769
O          1.29047        0.67031        2.42345
C          2.25485       -0.93632        3.84578
H          2.16005       -2.00490        4.06503
H          3.31665       -0.69003        3.68898
H          1.89145       -0.32425        4.68152
H          0.90451        0.82281        1.52012
Pd         0.04054       -1.41627        0.08446
O         -1.01466       -3.37319       -0.11869
C         -1.50367       -2.89389       -1.16583
O         -1.18286       -1.70486       -1.51862
C         -2.45251       -3.66188       -2.03087
H         -2.70116       -4.62294       -1.56608
H         -3.36301       -3.06840       -2.19638
H         -1.98971       -3.83118       -3.01430
H         -0.70955        4.42941        0.36756
H         -1.59868        3.87672       -1.05955
H         -0.12310        4.84268       -1.25241
H         -1.66641        0.21361        0.48186
C         -2.65280        1.25584       -1.05898
H         -2.25261        0.60564       -1.85047
H         -2.74742        2.26978       -1.48498
C         -4.02389        0.75992       -0.61316
H         -4.73520        0.80130       -1.45417
H         -3.93663       -0.30551       -0.33257
C         -4.55816        1.55233        0.57531
H         -5.52951        1.14728        0.90299
H         -4.74806        2.59475        0.25964
C         -3.56763        1.55776        1.73545
H         -3.45518        0.52825        2.12149
H         -3.95717        2.16207        2.57095
C         -2.20275        2.08144        1.29843
H         -2.30317        3.14299        1.02530
H         -1.48681        2.03924        2.13681
