32
Benzooxazole_H10_Int2_Sub6.log	Energy: -642158.4780058
C          0.57346       -0.21641        0.22760
C          1.22169        0.17039        1.43670
C          1.28710       -0.79834       -0.82932
C          2.59754       -0.01311        1.58265
C          0.42098        0.75053        2.56970
C          2.65488       -0.95920       -0.64105
H          0.79475       -1.12724       -1.74661
C          3.31884       -0.57915        0.52849
H          3.10761        0.27227        2.50529
O          3.58520       -1.48190       -1.48386
N          4.66699       -0.87672        0.38498
C          4.74700       -1.39204       -0.79040
H          5.63603       -1.76603       -1.29731
O         -1.25014        2.07158       -0.07588
C         -0.40097        2.81224       -0.57064
O          0.75610        2.40550       -1.00898
C         -0.63290        4.27880       -0.70179
H          0.09253        4.81425       -0.07125
H         -0.45084        4.58796       -1.74077
H         -1.65445        4.52805       -0.39780
H          0.86236        1.43961       -0.81339
Pd        -1.36208        0.00403        0.00377
O         -3.50536       -0.56205       -0.23254
C         -3.10203       -1.74362       -0.14192
O         -1.84922       -1.96691        0.00299
C         -4.03770       -2.91054       -0.17394
H         -4.12549       -3.32466        0.84196
H         -5.02785       -2.59518       -0.52331
H         -3.63072       -3.70180       -0.81805
H          1.06312        0.99578        3.42718
H         -0.34685        0.03699        2.90815
H         -0.11331        1.66458        2.26761
