45
Benzoisoxazole_H8_Int2_Sub27.log	Energy: -764635.1067005
C         -0.58460       -0.29656        0.08607
C          0.21121        0.54063        0.89756
C          0.10102       -1.26122       -0.64889
C          1.60215        0.39449        0.92288
C          0.00202        1.62226        1.81543
C          1.50822       -1.38169       -0.59914
H         -0.46175       -1.96224       -1.27047
C          2.31510       -0.55856        0.18122
O          2.13304        1.30338        1.76188
H         -0.93587        2.08039        2.12912
N          1.12390        2.05826        2.30962
H          1.97578       -2.16352       -1.20109
C          3.81861       -0.61581        0.25054
O         -2.40284        1.91439       -0.19579
C         -1.70745        2.52019       -1.01300
O         -0.84074        1.94052       -1.79483
C         -1.78288        4.00015       -1.14954
H         -1.70599        4.29148       -2.20499
H         -2.70873        4.37389       -0.70005
H         -0.92009        4.43415       -0.61953
H         -0.75301        0.99330       -1.52678
Pd        -2.52883       -0.14179       -0.00596
O         -4.66693       -0.73617       -0.03902
C         -4.24547       -1.91036        0.06990
O         -2.98160       -2.11491        0.11381
C         -5.16853       -3.08128        0.18014
H         -6.16854       -2.81178       -0.17993
H         -4.76673       -3.93611       -0.37969
H         -5.23752       -3.37776        1.23805
H          4.08947       -0.51597        1.31872
C          4.45109        0.58153       -0.47831
H          4.03656        1.51993       -0.07905
H          4.16149        0.53272       -1.54361
C          5.97015        0.57633       -0.35257
H          6.39787        1.42241       -0.91441
H          6.24284        0.73846        0.70581
C          6.57123       -0.74076       -0.83009
H          7.66354       -0.74092       -0.68424
H          6.40306       -0.84306       -1.91776
C          5.93859       -1.92928       -0.11434
H          6.20077       -1.89082        0.95837
H          6.35105       -2.87558       -0.49970
C          4.42058       -1.92366       -0.25824
H          4.16497       -2.05244       -1.32548
H          3.97604       -2.77819        0.27746
