45
Benzothiophene_H9_deriv1_Int2_Sub28.log	Energy: -933322.1909874
C         -0.16259       -0.37257       -0.31649
C         -0.19028       -1.66278        0.23653
C          1.01994        0.02962       -0.93520
C          0.93377       -2.52678        0.17546
S         -1.52229       -2.41673        1.06851
C          2.16136       -0.79998       -1.00832
H          1.07556        1.02733       -1.38028
C          2.10377       -2.07621       -0.45771
C          0.66922       -3.78332        0.81901
C         -0.58716       -3.84796        1.33854
C          3.42373       -0.28083       -1.64012
H          2.97312       -2.73646       -0.51379
H          1.39482       -4.59520        0.88584
H         -1.03669       -4.68564        1.87164
O         -0.61088        2.31480        0.64560
C          0.19688        2.23695        1.57030
O          0.61281        1.11085        2.08106
C          0.80242        3.45499        2.17708
H          0.19769        4.33590        1.93751
H          0.90997        3.32781        3.26194
H          1.81154        3.58088        1.75354
H          0.28778        0.36524        1.52023
Pd        -1.72413        0.80191       -0.22241
O         -3.81579        1.51892       -0.45002
C         -4.04457        0.39544       -0.95359
O         -3.08918       -0.45181       -1.04690
C         -5.39395        0.01134       -1.47145
H         -6.14925        0.73325       -1.13943
H         -5.36264       -0.00439       -2.57140
H         -5.64881       -1.00273       -1.13462
H          3.15812        0.42239       -2.44696
H          3.96167       -1.11512       -2.12016
C          4.41499        0.43713       -0.68844
C          3.74260        1.62352        0.00551
H          4.47294        2.16947        0.62412
H          3.32491        2.33339       -0.72713
H          2.92767        1.28787        0.66420
C          4.94001       -0.53053        0.37265
H          5.43984       -1.39691       -0.08992
H          5.67386       -0.02973        1.02392
H          4.12707       -0.90880        1.01068
C          5.58438        0.94314       -1.53529
H          6.33421        1.45251       -0.90942
H          6.08827        0.11181       -2.05362
H          5.24218        1.65794       -2.30070
