34
Benzoisoxazole_H11_deriv1_Int2_Sub23.log	Energy: -965168.4598171
C          0.05385        0.37053       -0.02598
C          1.23981       -0.31906       -0.32400
C          0.22689        1.70595        0.34001
C          2.51594        0.25350       -0.23819
O          1.35135       -1.60774       -0.68993
C          1.50280        2.29692        0.41992
H         -0.64892        2.32235        0.55359
C          2.66459        1.59544        0.13847
C          3.38556       -0.85016       -0.58748
N          2.68700       -1.92936       -0.85041
Cl         1.61708        3.96579        0.88850
H          3.63256        2.08658        0.21708
N          4.74458       -0.87786       -0.63610
O         -1.23021       -2.28043        0.03202
C         -0.50551       -2.72386        0.92191
O         -0.07457       -1.99627        1.91925
C         -0.02847       -4.12895        0.91403
H          0.06569       -4.51959        1.93458
H         -0.69289       -4.74893        0.30307
H          0.97234       -4.11287        0.45167
H         -0.32908       -1.06222        1.74976
Pd        -1.78774       -0.31655       -0.15465
O         -3.98252       -0.28119       -0.37391
C         -3.87045        0.96325       -0.45541
O         -2.70230        1.48195       -0.35663
C         -5.04279        1.85792       -0.69236
H         -4.93578        2.78490       -0.11375
H         -5.06897        2.12995       -1.75875
H         -5.97395        1.33935       -0.43482
H          5.12375       -1.73299       -1.02082
C          5.56617        0.30026       -0.68428
H          6.61028       -0.00526       -0.83023
H          5.52717        0.86150        0.26321
H          5.29837        0.98942       -1.50609
