39
Benzofuran_H13_Int2_Sub5.log	Energy: -681396.6396305
C          0.58494        0.17707        0.10434
C          1.24885        1.37434       -0.38077
C          1.55375       -0.51859        0.78306
C          2.58485        1.26949        0.04380
C          0.85560        2.49963       -1.11560
C          1.52029       -1.79401        1.55639
O          2.76270        0.12313        0.74637
C          3.55548        2.22215       -0.23749
C          1.81174        3.46712       -1.40385
H         -0.18302        2.61142       -1.43260
C          3.14296        3.32999       -0.97400
H          4.58366        2.10249        0.10788
H          1.52538        4.35540       -1.97168
H          3.86854        4.10926       -1.21845
O         -1.16982       -2.07540       -0.70921
C         -0.35510       -2.51973       -1.52135
O          0.70958       -1.87841       -1.89906
C         -0.52516       -3.87433       -2.11887
H         -1.55314       -4.22371       -1.97679
H         -0.25600       -3.85371       -3.18303
H          0.16796       -4.56592       -1.61482
H          0.79968       -1.05661       -1.33183
Pd        -1.34650       -0.15420        0.01333
O         -3.51181        0.24513        0.17305
C         -3.18025        1.38273        0.58102
O         -1.93540        1.67144        0.66329
C         -4.18680        2.40525        0.99964
H         -3.88262        3.40048        0.64903
H         -5.17924        2.14096        0.61567
H         -4.22343        2.43679        2.09932
H          0.50959       -2.20623        1.40308
C          2.55504       -2.79399        1.03788
H          2.49140       -3.74207        1.59328
H          2.40847       -3.00735       -0.03187
H          3.57309       -2.39459        1.16038
C          1.70050       -1.51932        3.05105
H          0.92482       -0.83252        3.42000
H          1.63958       -2.45458        3.62847
H          2.68214       -1.06027        3.24391
