34
Benzoisoxazole_H10_Int2_Sub7.log	Energy: -676843.9009657
C          0.53957       -0.23059       -0.19180
C          0.88633       -1.36071        0.63013
C          1.49562        0.42811       -0.95955
C          2.22281       -1.77636        0.69752
N         -0.10501       -1.97737        1.36354
C          2.81329       -0.02263       -0.87574
H          1.23446        1.27736       -1.59446
C          3.18349       -1.09056       -0.05927
H          2.51237       -2.62520        1.31682
O          3.89812        0.46919       -1.50657
C          4.59563       -1.16620       -0.28563
N          4.99595       -0.25592       -1.12791
H          5.32754       -1.85476        0.13658
O         -0.76260        2.34515       -0.01568
C         -0.04671        2.77854        0.88958
O          0.64187        2.01928        1.69232
C          0.10298        4.24062        1.12775
H          0.03136        4.45362        2.20288
H          1.10800        4.54657        0.79840
H         -0.65508        4.79502        0.56526
H          0.59918        1.08944        1.35707
Pd        -1.32532        0.38100       -0.30119
O         -3.54971        0.32470       -0.54010
C         -3.42341       -0.91314       -0.62304
O         -2.24778       -1.42867       -0.52950
C         -4.58358       -1.82768       -0.85117
H         -5.52739       -1.28430       -0.72705
H         -4.52418       -2.22987       -1.87380
H         -4.53243       -2.68026       -0.16004
H         -1.02090       -1.92506        0.92405
C          0.15867       -3.18368        2.09078
H         -0.77370       -3.53506        2.55291
H          0.88187       -3.00807        2.90483
H          0.55980       -4.00385        1.46093
