42
Benzo13dioxol_H9_Int2_Sub20.log	Energy: -729315.0919927
C          0.09235       -0.34495       -0.04131
C         -0.19961       -1.55118       -0.70885
C         -0.93580        0.43030        0.51154
C         -1.53288       -1.90064       -0.78543
H          0.58370       -2.19047       -1.11820
C         -2.29972        0.07715        0.42954
H         -0.66988        1.34839        1.03662
C         -2.54605       -1.11726       -0.23595
O         -2.08663       -2.98280       -1.40008
C         -3.43067        0.92514        1.00263
O         -3.75059       -1.70651       -0.51095
C         -3.44077       -2.99406       -1.00624
H         -4.08060       -3.22174       -1.87201
H         -3.59181       -3.74601       -0.20510
O          1.57194        2.17149       -0.10045
C          0.96577        2.65204       -1.05799
O          0.30641        1.93795       -1.92711
C          0.91859        4.12212       -1.29332
H          1.64850        4.63002       -0.65479
H          1.10543        4.33807       -2.35397
H         -0.09510        4.48186       -1.05843
H          0.27171        1.00519       -1.59725
Pd         1.97440        0.15533        0.16873
O          4.17343       -0.09480        0.49534
C          3.92573       -1.31971        0.54873
O          2.71989       -1.72229        0.39018
C          4.98980       -2.33593        0.82163
H          5.98143       -1.90888        0.63017
H          4.92829       -2.63708        1.87867
H          4.82441       -3.23285        0.21011
C         -2.90439        2.18465        1.68941
H         -3.74883        2.76591        2.08986
H         -2.23538        1.94522        2.52982
H         -2.35778        2.83468        0.98852
C         -4.36335        1.34378       -0.14408
H         -4.78187        0.46781       -0.65908
H         -5.19998        1.94667        0.24393
H         -3.81976        1.94985       -0.88562
C         -4.21079        0.09391        2.03187
H         -5.04355        0.68395        2.44684
H         -4.62878       -0.81391        1.57529
H         -3.55716       -0.20825        2.86447
