33
Benzofuran_H13_Int2_Sub17.log	Energy: -818836.3199982
C         -0.14275        0.26603       -0.34994
C          0.88341       -0.54193        0.28573
C          0.55445        1.15825       -1.11547
C          2.10971       -0.02554       -0.16548
C          0.88051       -1.62943        1.16927
H          0.23510        1.95031       -1.78952
O          1.90607        1.00306       -1.01381
C          3.34377       -0.53572        0.23920
C          2.10130       -2.15105        1.57697
H         -0.06605       -2.05783        1.50264
C          3.31541       -1.61139        1.12207
C          4.62943        0.05563       -0.26040
H          2.12559       -3.00124        2.26176
H          4.26192       -2.03729        1.45796
O         -2.51969        1.96526       -0.21077
C         -2.03295        2.80732        0.54716
O         -0.95672        2.60461        1.25051
C         -2.65176        4.15135        0.71409
H         -3.58234        4.21315        0.14121
H         -2.84309        4.33219        1.78161
H         -1.94155        4.92069        0.37680
H         -0.55327        1.74635        0.95628
Pd        -2.07305       -0.04412       -0.25237
O         -3.99037       -1.10955       -0.16299
C         -3.31237       -2.16322       -0.19552
O         -2.03499       -2.06990       -0.23397
C         -3.94131       -3.51748       -0.21993
H         -3.36092       -4.21691        0.39614
H         -4.98045       -3.45938        0.12514
H         -3.92831       -3.89375       -1.25437
F          5.69223       -0.57574        0.24590
F          4.73695        1.34663        0.07183
F          4.71951       -0.01437       -1.59162
