44
Benzoisoxazole_H9_deriv1_Int2_Sub1.log	Energy: -927477.0531412
C          0.04333        0.01799       -0.15770
C          0.58486       -1.15521       -0.68563
C          0.91176        1.05854        0.26594
C          1.99051       -1.26085       -0.73987
C         -0.24829       -2.32062       -1.14361
C          2.30296        0.99467        0.23180
H          0.44518        1.97782        0.62193
C          2.79742       -0.21549       -0.28424
C          2.95501       -2.23266       -1.17142
C          3.22035        2.12082        0.68853
O          4.09137       -0.55851       -0.43551
H          2.79144       -3.21641       -1.60685
N          4.16985       -1.81075       -0.98423
O         -2.32063       -1.24246        1.10303
C         -1.69392       -1.73436        2.03991
O         -0.53346       -1.29332        2.44377
C         -2.20778       -2.91797        2.77896
H         -3.29541       -2.98556        2.66925
H         -1.74843       -3.81021        2.32488
H         -1.91068       -2.87885        3.83416
H         -0.21952       -0.60724        1.81165
Pd        -1.86888        0.44797        0.00844
O         -3.73433        1.60919       -0.18673
C         -3.04640        2.44754       -0.81385
O         -1.79308        2.22873       -0.96506
C         -3.64370        3.67768       -1.41622
H         -3.79781        3.50387       -2.49227
H         -4.61126        3.89779       -0.94965
H         -2.95437        4.52575       -1.31055
C          2.42455        3.32197        1.19740
H          3.12058        4.11265        1.51499
H          1.77410        3.74438        0.41658
H          1.79926        3.06268        2.06552
C          4.11914        1.60440        1.82303
H          4.73814        0.75750        1.49634
H          4.79207        2.40708        2.16300
H          3.51529        1.27975        2.68457
C          4.08515        2.56956       -0.50025
H          4.75453        3.38654       -0.18857
H          4.70651        1.74809       -0.88253
H          3.45543        2.93956       -1.32370
F         -1.43243       -1.96577       -1.62954
F         -0.48031       -3.18579       -0.13110
F          0.37672       -3.02421       -2.09489
