45
Benzoisoxazole_H9_deriv1_Int2_Sub8.log	Energy: -787897.5681763
C         -0.00257        0.31015       -0.12787
C          0.45122        1.37096       -0.92468
C          0.94144       -0.41646        0.65551
C          1.84225        1.62335       -0.90983
O         -0.24441        2.17054       -1.74630
C          2.31250       -0.18861        0.70234
H          0.54331       -1.23067        1.26439
C          2.71674        0.87454       -0.12660
C          2.70514        2.55865       -1.55839
C          3.29657       -0.99193        1.54204
O          3.96779        1.33781       -0.31233
H          2.45037        3.34589       -2.26650
N          3.94449        2.38493       -1.20412
O         -1.63714       -2.04481       -0.84152
C         -0.87306       -2.40291       -1.73836
O          0.12336       -1.68871       -2.17264
C         -1.03126       -3.72666       -2.40576
H         -1.95688       -4.20887       -2.07566
H         -1.02778       -3.59296       -3.49658
H         -0.16640       -4.35828       -2.15270
H          0.19992       -0.87155       -1.60763
Pd        -1.87396       -0.25216        0.16280
O         -3.94558       -0.27168        0.94503
C         -3.68037        0.84680        1.44172
O         -2.52047        1.35472        1.24396
C         -4.66454        1.60328        2.27504
H         -4.67656        2.66033        1.97623
H         -5.66319        1.16084        2.18125
H         -4.34551        1.56255        3.32755
C          2.58955       -2.08250        2.34518
H          3.32898       -2.63838        2.94116
H          1.84790       -1.66285        3.04196
H          2.07853       -2.80697        1.69212
C          4.32555       -1.65240        0.61145
H          4.88243       -0.90350        0.03114
H          5.05125       -2.23590        1.19997
H          3.83004       -2.33621       -0.09530
C          4.01245       -0.04612        2.51850
H          4.73617       -0.60832        3.12976
H          4.55924        0.74385        1.98502
H          3.29044        0.43315        3.19726
C         -1.65077        2.16398       -1.77628
H         -2.04826        1.18796       -2.10657
H         -2.07759        2.40786       -0.79190
H         -1.93925        2.92931       -2.50856
