27
Benzene_H10_Int2_Sub60.log	Energy: -800800.7941388
C         -0.69120       -0.91244       -0.19063
C         -0.74486       -1.85111       -1.23422
C         -1.74330       -0.92792        0.73681
C         -1.80516       -2.75014       -1.35286
H          0.07358       -1.88415       -1.95822
C         -2.80606       -1.82607        0.63741
Cl        -1.75410        0.20542        2.06119
C         -2.83588       -2.73730       -0.41504
H         -1.81953       -3.46740       -2.17680
H         -3.59841       -1.80323        1.38787
H         -3.66755       -3.44078       -0.49647
O         -0.17959        2.02070       -0.11161
C         -1.22880        2.30286       -0.68503
O         -1.94113        1.44734       -1.36467
C         -1.79894        3.67732       -0.62215
H         -1.02108        4.39380       -0.33792
H         -2.26231        3.94768       -1.57949
H         -2.58724        3.67877        0.14713
H         -1.55638        0.54504       -1.25025
Pd         0.88262        0.25178       -0.04110
O          3.01050        0.81800        0.13233
C          3.24704       -0.41281        0.11651
O          2.26851       -1.23048        0.01174
C          4.64162       -0.94642        0.19920
H          5.17320       -0.69864       -0.73181
H          5.17387       -0.45162        1.02315
H          4.63769       -2.03362        0.34054
