30
Benzo13dioxol_H9_Int2_Sub10.log	Energy: -919035.5997930
C         -0.54253       -0.12112        0.07846
C         -1.28756       -0.97642       -0.76996
C         -1.22797        0.62000        1.04783
C         -2.65501       -1.03238       -0.60305
H         -0.79141       -1.59223       -1.52173
C         -2.62406        0.56514        1.21819
Cl        -0.34637        1.67725        2.11881
C         -3.30960       -0.27731        0.37084
O         -3.57748       -1.74125       -1.30620
H         -3.12681        1.15645        1.98296
O         -4.64493       -0.50323        0.29052
C         -4.79849       -1.58497       -0.61101
H         -5.60695       -1.36085       -1.32348
H         -5.02732       -2.50951       -0.04493
O          1.66160        1.84466       -0.41942
C          0.91681        2.65634       -0.96436
O         -0.28017        2.37094       -1.39370
C          1.32784        4.07507       -1.15629
H          2.41548        4.16675       -1.06851
H          0.97138        4.45157       -2.12363
H          0.84996        4.67399       -0.36512
H         -0.50953        1.45145       -1.10716
Pd         1.41958       -0.17486       -0.07050
O          3.44965       -1.04045       -0.11269
C          2.88859       -2.14139        0.09476
O          1.61192       -2.17874        0.18423
C          3.66255       -3.40824        0.27039
H          4.67550       -3.29312       -0.13344
H          3.72995       -3.63458        1.34558
H          3.13917       -4.24316       -0.21404
