38
Benzothiophene_H13_deriv1_Int2_Sub23.log	Energy: -1080820.1258044
C         -0.19034        0.82545       -0.81375
C          1.22528        0.50241       -0.65084
C         -0.37165        1.77454       -1.78867
C          2.01123        1.23526       -1.57315
C          1.88582       -0.38106        0.25256
H         -1.32593        2.17661       -2.13088
S          1.07605        2.30599       -2.56635
C          3.39497        1.07604       -1.64655
C          3.28479       -0.58955        0.14311
C          1.04989       -1.06617        1.29643
C          4.01092        0.17058       -0.81552
H          3.98486        1.65357       -2.36173
N          3.98485       -1.48223        0.90489
H          5.08875        0.03671       -0.88997
O         -2.20997        1.21784        1.39522
C         -1.62681        2.21289        1.82295
O         -0.59259        2.75509        1.25231
C         -2.06983        2.88191        3.08012
H         -3.04910        2.49924        3.38550
H         -1.32980        2.66612        3.86610
H         -2.09579        3.97101        2.94119
H         -0.35921        2.23012        0.43778
Pd        -1.80855       -0.08882       -0.14936
O         -3.43811       -1.55977       -0.08524
C         -2.86951       -2.10677       -1.06098
O         -1.80777       -1.57649       -1.53436
C         -3.37821       -3.37575       -1.66618
H         -3.27419       -3.34266       -2.75882
H         -2.76579       -4.21265       -1.29704
H         -4.42270       -3.54272       -1.37693
F          1.77010       -1.66952        2.26719
F          0.25505       -2.01658        0.79532
F          0.26321       -0.19442        1.94924
H          3.48691       -1.99084        1.61439
C          5.40121       -1.67785        0.82178
H          5.69050       -2.45188        1.54454
H          5.97679       -0.76518        1.06388
H          5.72332       -2.02222       -0.17733
