29
Benzene_H10_Int2_Sub119.log	Energy: -547197.8895653
C          0.93544       -0.38420       -0.36303
C          1.38678       -1.41364        0.46660
C          1.80472        0.19368       -1.30072
C          2.71027       -1.88818        0.38109
H          0.69293       -1.88759        1.16741
C          3.11536       -0.27770       -1.38734
H          1.46415        0.99578       -1.95962
C          3.57186       -1.29734       -0.55960
N          3.13113       -2.93787        1.16661
H          3.79994        0.16055       -2.11901
H          4.60160       -1.65462       -0.64585
O         -0.37913        2.19606       -0.25602
C          0.46514        2.73027        0.46209
O          1.29295        2.07089        1.22430
C          0.62262        4.21121        0.51050
H         -0.20726        4.69594       -0.01362
H          0.67539        4.54638        1.55545
H          1.57636        4.48013        0.03142
H          1.21477        1.10708        1.01693
Pd        -0.92305        0.19548       -0.19622
O         -3.15243        0.04988        0.01835
C         -2.96678       -1.18665        0.04997
O         -1.77377       -1.64611       -0.02181
C         -4.10270       -2.15804        0.13942
H         -5.00466       -1.65562        0.50890
H         -4.30425       -2.55898       -0.86580
H         -3.83135       -3.00290        0.78618
H          4.12714       -3.04800        1.29714
H          2.58060       -3.14725        1.98773
