42
Benzofuran_H9_deriv1_Int2_Sub28.log	Energy: -994369.3024904
C         -0.51342        0.77007        0.02002
C          0.85668        0.79513       -0.24243
C         -1.10618        2.01927        0.24027
C          1.63618        1.96612       -0.27422
O          1.64655       -0.28553       -0.47332
C         -0.34313        3.20089        0.21088
H         -2.18081        2.09155        0.41794
C          1.02318        3.20401       -0.04221
C          2.97760        1.52234       -0.55228
C          2.91933        0.16517       -0.66148
Cl        -1.14926        4.71304        0.50185
H          1.58333        4.13952       -0.05447
H          3.86669        2.13809       -0.65746
C          3.94310       -0.89099       -0.95376
O         -0.25343       -1.92163        1.15514
C          0.31856       -1.54244        2.17569
O          0.26537       -0.32016        2.62734
C          1.15377       -2.46933        2.98863
H          0.97346       -3.50478        2.68225
H          2.21174       -2.21478        2.82308
H          0.94180       -2.32998        4.05709
H         -0.20322        0.24617        1.96711
Pd        -1.59891       -0.86339        0.00433
O         -3.28563       -2.21953       -0.44326
C         -3.78493       -1.24848       -1.05779
O         -3.14908       -0.13697       -1.07844
C         -5.08308       -1.35124       -1.79124
H         -5.66424       -0.42831       -1.66424
H         -4.87354       -1.46859       -2.86553
H         -5.64908       -2.22259       -1.44096
C          5.32283       -0.24718       -1.07322
H          6.07976       -1.01671       -1.28661
H          5.35137        0.48839       -1.89121
H          5.61035        0.26253       -0.14101
C          3.93909       -1.91844        0.18740
H          2.94876       -2.38676        0.28558
H          4.67537       -2.71225       -0.01200
H          4.19985       -1.44207        1.14570
C          3.57144       -1.58801       -2.27124
H          4.29530       -2.38662       -2.49676
H          2.56931       -2.03636       -2.20918
H          3.57459       -0.87289       -3.10753
