39
Benzo13dioxol_H9_Int2_Sub29.log	Energy: -704670.6403465
C          0.23303       -0.33203       -0.24865
C         -0.70894        0.34240        0.56166
C         -0.18049       -1.35882       -1.10700
C         -2.02434       -0.06554        0.47241
H         -0.41648        1.17144        1.20806
C         -1.52823       -1.75495       -1.19039
H          0.55299       -1.86354       -1.74101
C         -2.42783       -1.09004       -0.38383
O         -3.10553        0.39818        1.14999
H         -1.85315       -2.54992       -1.86345
O         -3.76486       -1.28279       -0.25362
C         -4.24818       -0.23837        0.58696
H         -4.83217       -0.69485        1.40720
C         -5.09249        0.75147       -0.20120
O          2.85456       -1.62013       -0.32368
C          2.56751       -2.53857        0.44441
O          1.56906       -2.49328        1.28131
C          3.34889       -3.80646        0.47226
H          4.23736       -3.71607       -0.16070
H          3.63088       -4.04316        1.50774
H          2.70980       -4.62678        0.11236
H          1.03867       -1.68035        1.08500
Pd         2.08704        0.30095       -0.21108
O          3.79418        1.74040       -0.12287
C          2.91513        2.62548       -0.02784
O          1.68101        2.28258       -0.01226
C          3.25544        4.08110        0.03956
H          4.30543        4.21312        0.32671
H          3.09795        4.52731       -0.95437
H          2.58852        4.59504        0.74444
H         -4.42751        1.14791       -0.99000
C         -6.26849        0.03902       -0.85501
H         -6.85506        0.74061       -1.46636
H         -5.92820       -0.78208       -1.50128
H         -6.94557       -0.38370       -0.09389
C         -5.53554        1.89883        0.69616
H         -4.67288        2.40250        1.15402
H         -6.10550        2.64281        0.12027
H         -6.18898        1.53526        1.50689
