33
Benzofuran_H13_deriv1_Int2_Sub22.log	Energy: -920413.1591566
C         -0.29367       -0.56046       -0.33502
C         -1.69362       -0.32599       -0.02280
C         -0.31425       -1.76099       -0.99161
C         -2.40069       -1.43404       -0.51450
C         -2.39884        0.70183        0.61717
Cl         0.95374       -2.67798       -1.66533
O         -1.54646       -2.31263       -1.10813
C         -3.77589       -1.57569       -0.39028
C         -3.78110        0.59614        0.75749
H         -1.86343        1.58228        0.97850
C         -4.44803       -0.54346        0.25429
H         -4.29538       -2.45166       -0.78168
C         -4.57276        1.68275        1.42899
H         -5.53282       -0.61295        0.37271
O          2.50188       -0.69657        0.58790
C          2.28861       -1.63222        1.36067
O          1.10427       -1.96015        1.78689
C          3.39852       -2.49457        1.85105
H          4.36114       -1.99617        1.69676
H          3.24535       -2.74997        2.90753
H          3.37670       -3.43189        1.27320
H          0.43305       -1.43934        1.26957
Pd         1.16897        0.72007       -0.07018
O          2.24742        2.62550       -0.02375
C          1.18751        3.14298       -0.44988
O          0.16993        2.38903       -0.63847
C          1.08291        4.59802       -0.76993
H          0.09722        4.98130       -0.47490
H          1.88613        5.15446       -0.27235
H          1.18002        4.72748       -1.85879
H         -5.30898        2.12535        0.73891
H         -3.92010        2.49144        1.78585
H         -5.13363        1.29456        2.29419
