27
Benzene_H10_Int2_Sub160.log	Energy: -698927.2068129
C         -0.33340       -0.08526       -0.13075
C          0.31057       -0.97318        0.74180
C          0.44974        0.71181       -0.97780
C          1.70332       -1.04895        0.78728
H         -0.28261       -1.63211        1.38122
C          1.84264        0.63471       -0.95003
H         -0.02523        1.40149       -1.68121
C          2.46161       -0.24173       -0.05978
H          2.19084       -1.74245        1.47535
H          2.43922        1.25561       -1.62139
I          4.56183       -0.35096        0.00075
O         -2.34649        1.98393       -0.46556
C         -1.84355        2.79864        0.30844
O         -1.05033        2.46332        1.28855
C         -2.09430        4.26029        0.18022
H         -2.86048        4.44616       -0.57906
H         -2.40194        4.66915        1.15278
H         -1.15431        4.75875       -0.10087
H         -0.85389        1.49923        1.21155
Pd        -2.28838       -0.06823       -0.19115
O         -4.37609       -0.84477       -0.15545
C         -3.85490       -1.96464        0.04520
O         -2.57928       -2.05054        0.13450
C         -4.66841       -3.21449        0.15551
H         -5.71418       -2.96898        0.37546
H         -4.62180       -3.75175       -0.80417
H         -4.24937       -3.87409        0.92686
