30
Benzene_H10_Int2_Sub121.log	Energy: -594336.4999189
C         -0.73503        0.05203        0.45851
C         -1.54502       -0.83008       -0.26009
C         -1.31818        0.95041        1.36650
C         -2.93915       -0.82632       -0.08290
H         -1.08757       -1.55799       -0.93715
C         -2.70284        0.95034        1.53225
H         -0.69749        1.64154        1.94182
C         -3.51757        0.07866        0.81493
N         -3.70429       -1.77829       -0.75674
H         -3.16205        1.64888        2.23730
H         -4.60066        0.09110        0.93305
O          1.37455        2.02786        0.18859
C          0.74034        2.79259       -0.53770
O         -0.28238        2.42529       -1.25891
C          1.08936        4.23682       -0.64438
H          2.04483        4.43163       -0.14697
H          1.13072        4.53245       -1.70175
H          0.29169        4.82846       -0.16995
H         -0.52350        1.49879       -1.01398
Pd         1.19924       -0.03765        0.19036
O          3.22925       -0.93920       -0.10763
C          2.63456       -2.03918       -0.08092
O          1.36146       -2.06157        0.05833
C          3.36692       -3.34117       -0.17670
H          4.36495       -3.18555       -0.60349
H          3.47334       -3.76156        0.83512
H          2.79132       -4.05870       -0.77631
H         -3.31797       -2.02859       -1.66377
O         -5.04138       -1.44392       -0.92021
H         -5.51517       -2.11307       -0.41178
