33
Benzo13dioxol_H9_Int2_Sub14.log	Energy: -655365.1885189
C         -0.53535       -0.13138        0.22079
C         -1.28168       -0.71001       -0.83216
C         -1.16368        0.28603        1.41107
C         -2.64436       -0.84315       -0.65394
H         -0.80315       -1.05450       -1.75061
C         -2.56026        0.14037        1.55613
C         -0.36231        0.84961        2.55227
C         -3.26968       -0.42369        0.51682
O         -3.58389       -1.32365       -1.51379
H         -3.06770        0.46075        2.46808
O         -4.60935       -0.63374        0.40758
C         -4.77661       -1.41511       -0.75999
H         -5.62033       -1.02555       -1.34967
H         -4.95841       -2.47167       -0.47729
O          1.45937        2.03405       -0.13656
C          0.63423        2.83988       -0.56616
O         -0.59420        2.53415       -0.86794
C          0.98752        4.27359       -0.77400
H          2.04637        4.43769       -0.55028
H          0.76439        4.55725       -1.81251
H          0.35802        4.89889       -0.12387
H         -0.75910        1.58275       -0.63137
Pd         1.41342       -0.03332       -0.00499
O          3.51655       -0.75683       -0.22669
C          3.02809       -1.90335       -0.11196
O          1.76326       -2.03437        0.03797
C          3.87728       -3.13589       -0.12236
H          4.89179       -2.89665       -0.46212
H          3.92176       -3.54751        0.89732
H          3.42159       -3.90064       -0.76606
H          0.27393        0.07026        3.00194
H         -1.01408        1.25160        3.34100
H          0.31477        1.65170        2.22156
