30
Benzo13dioxol_H9_Int2_Sub26.log	Energy: -919041.9428156
C          0.10008        0.29705       -0.20072
C          0.99421       -0.41621        0.62672
C          0.57231        1.31067       -1.04907
C          2.32216       -0.04965        0.56206
H          0.65767       -1.23720        1.26164
C          1.93168        1.66026       -1.10682
H         -0.12881        1.83802       -1.70071
C          2.78060        0.95834       -0.27828
O          3.39149       -0.53279        1.26672
H          2.30080        2.44113       -1.77304
O          4.12794        1.09619       -0.08802
C          4.51447       -0.01290        0.64647
H          5.29204        0.24183        1.37485
Cl         5.24769       -1.26196       -0.45852
O         -2.46704        1.66706       -0.45596
C         -2.21070        2.59357        0.31336
O         -1.30789        2.51757        1.25196
C         -2.91427        3.90253        0.22612
H         -3.73365        3.84272       -0.49718
H         -3.29089        4.18598        1.21887
H         -2.19305        4.67443       -0.08209
H         -0.82056        1.66535        1.13949
Pd        -1.77665       -0.26935       -0.20610
O         -3.53110       -1.63545       -0.11774
C         -2.69297       -2.54716        0.06232
O         -1.44843       -2.24493        0.11611
C         -3.08982       -3.98305        0.18816
H         -4.15528       -4.06275        0.43453
H         -2.90663       -4.48538       -0.77408
H         -2.47286       -4.48258        0.94678
