36
Benzothiophene_H13_deriv1_Int2_Sub17.log	Energy: -1232850.6289482
C         -0.66518        1.02085       -0.72925
C          0.79014        0.92738       -0.66350
C         -1.04855        2.03320       -1.56828
C          1.40389        1.87156       -1.53131
C          1.63689        0.07942        0.09905
H         -2.07095        2.30875       -1.83006
S          0.25315        2.88543       -2.33141
C          2.78372        1.93797       -1.70690
C          3.01836        0.09318       -0.14260
C          1.01121       -0.77575        1.18534
C          3.57271        1.02376       -1.03901
H          3.22996        2.67470       -2.37751
C          4.00972       -0.87476        0.48457
H          4.64917        1.01906       -1.20382
O         -2.75807        0.68694        1.44817
C         -2.40575        1.71368        2.02754
O         -1.47691        2.51215        1.59079
C         -3.02490        2.11954        3.32099
H         -3.92250        1.52272        3.51259
H         -2.29151        1.94709        4.12387
H         -3.25661        3.19294        3.31065
H         -1.11427        2.14795        0.73984
Pd        -2.02021       -0.31283       -0.19501
O         -3.21595       -2.13590       -0.31382
C         -2.51238       -2.43775       -1.30859
O         -1.61582       -1.61219       -1.69700
C         -2.66653       -3.73697       -2.02811
H         -2.54621       -3.58841       -3.10933
H         -1.87126       -4.42040       -1.69297
H         -3.64115       -4.18440       -1.79934
F          1.87995       -1.15554        2.11498
F          0.43154       -1.87414        0.70331
F          0.06976       -0.07378        1.84181
F          4.33418       -0.54814        1.73537
F          5.15511       -0.88489       -0.21050
F          3.55488       -2.12755        0.47884
