33
Benzoicacid_H10_Int2_Sub14.log	Energy: -655394.9010797
C          0.42204       -0.93354       -0.20622
C          1.64939       -0.68678        0.43969
C          0.32046       -2.02310       -1.08042
C          1.78715        0.47339        1.36707
C          2.77847       -1.49845        0.19687
C          1.42534       -2.83947       -1.31276
H         -0.63603       -2.23947       -1.56268
O          0.83092        0.51637        2.29636
O          2.66263        1.30663        1.30713
C          2.63818       -2.57533       -0.68229
C          4.09939       -1.23925        0.86266
H          1.33885       -3.69183       -1.99172
H          0.96562        1.33765        2.79534
H          3.50051       -3.22009       -0.86975
O         -0.02882        1.93296       -0.19863
C          0.81554        2.17610       -1.06271
O          1.13911        1.33490       -2.00595
C          1.58097        3.44892       -1.05658
H          1.93831        3.70446       -2.06077
H          0.97194        4.25212       -0.62696
H          2.44926        3.27619       -0.39912
H          0.70551        0.47119       -1.81887
Pd        -1.16159        0.20415       -0.01805
O         -3.29899        0.77104        0.20603
C         -3.52623       -0.45989        0.23961
O         -2.54859       -1.27772        0.11959
C         -4.90241       -1.00886        0.44545
H         -5.00800       -1.31114        1.49868
H         -5.65482       -0.24448        0.21743
H         -5.05134       -1.90310       -0.17408
H          4.00025       -1.19491        1.95825
H          4.51439       -0.27116        0.54859
H          4.81908       -2.03193        0.61758
