45
Benzoisoxazole_H10_Int2_Sub19.log	Energy: -764634.5292976
C         -0.47564        0.52874       -0.38075
C          0.74830       -0.08612       -0.02660
C         -0.50891        1.83428       -0.87689
C          1.97564        0.56537       -0.13322
H          0.72043       -1.12349        0.31616
C          0.72264        2.47641       -0.98818
H         -1.43328        2.33200       -1.17456
C          1.93870        1.88241       -0.62810
C          3.27321       -0.11175        0.22517
O          0.94761        3.72468       -1.43340
C          2.88205        2.92197       -0.91578
N          2.29664        3.98571       -1.38221
H          3.96563        2.92743       -0.79888
O         -3.21727        1.09068        0.38499
C         -2.95428        1.77652        1.37320
O         -1.84731        1.65933        2.05427
C         -3.88541        2.82606        1.86918
H         -3.99230        2.74684        2.95955
H         -3.44749        3.81268        1.65273
H         -4.85628        2.73420        1.37191
H         -1.25155        1.04048        1.56977
Pd        -2.10140       -0.54575       -0.21837
O         -3.42412       -2.33941       -0.27675
C         -2.39707       -2.96936       -0.61360
O         -1.28417       -2.34067       -0.70905
C         -2.42780       -4.42879       -0.93860
H         -3.32652       -4.89344       -0.51584
H         -2.44710       -4.54604       -2.03301
H         -1.51940       -4.92077       -0.56664
H          4.07929        0.63833        0.13344
C          3.60180       -1.25091       -0.75026
H          3.61585       -0.86218       -1.78103
H          2.78699       -1.99542       -0.71298
C          4.92671       -1.92138       -0.40631
H          5.11966       -2.75407       -1.10177
H          5.74914       -1.19797       -0.55480
C          4.94738       -2.41451        1.03636
H          5.92588       -2.86071        1.27673
H          4.20076       -3.22088        1.15363
C          4.62235       -1.28820        2.01150
H          5.42827       -0.53259        1.97617
H          4.60060       -1.66725        3.04601
C          3.29486       -0.62023        1.67164
H          2.47489       -1.34686        1.80928
H          3.08927        0.21449        2.36122
