30
Benzofuran_H13_Int2_Sub2.log	Energy: -895761.5954186
C          0.68364        0.14735       -0.24136
C          1.75887       -0.71741        0.21525
C          1.33905        1.11617       -0.95051
C          2.95477       -0.15142       -0.26064
C          1.82094       -1.89687        0.96902
Cl         0.74130        2.47334       -1.78852
O          2.68739        0.97530       -0.97520
C          4.21190       -0.68757       -0.01834
C          3.07023       -2.45141        1.22154
H          0.90285       -2.36801        1.32387
C          4.24845       -1.85588        0.73835
H          5.11509       -0.21392       -0.40584
H          3.14155       -3.37314        1.80348
H          5.21276       -2.32035        0.95657
O         -1.72463        1.72761        0.38707
C         -1.12396        2.50501        1.13062
O          0.03520        2.24506        1.66079
C         -1.68399        3.84425        1.45997
H         -2.75421        3.87341        1.23063
H         -1.49397        4.08907        2.51297
H         -1.15845        4.58963        0.84257
H          0.38810        1.41466        1.24329
Pd        -1.23574       -0.21677       -0.05735
O         -3.11934       -1.33055       -0.02143
C         -2.43441       -2.34050       -0.31084
O         -1.16688       -2.20586       -0.43391
C         -3.04876       -3.68150       -0.54343
H         -2.40730       -4.46964       -0.12761
H         -4.05301       -3.71980       -0.10484
H         -3.12577       -3.85073       -1.62844
