33
Benzo13dioxol_H8_deriv1_Int2_Sub9.log	Energy: -1130428.4151011
C         -0.20919        0.02319       -0.13089
C          0.42037       -0.97062        0.59466
C          0.64683        0.86735       -0.87324
C          1.81093       -1.14122        0.60983
O         -0.13925       -1.87930        1.43875
C          2.02639        0.70438       -0.86316
H          0.23106        1.67050       -1.48444
C          2.66110       -0.31432       -0.11023
O          2.11854       -2.16405        1.43773
C          0.88642       -2.78979        1.75809
Cl         2.97559        1.79556       -1.81752
C          4.15923       -0.47819       -0.09193
H          0.86242       -3.02262        2.83259
H          0.77604       -3.71206        1.15485
O         -2.14821        2.16869        0.22042
C         -1.53646        2.72729        1.13177
O         -0.64304        2.13176        1.87057
C         -1.76399        4.16157        1.45848
H         -2.63407        4.53945        0.91230
H         -1.89934        4.27883        2.54246
H         -0.86668        4.73346        1.17673
H         -0.47591        1.23459        1.49446
Pd        -2.16388        0.15492       -0.22593
O         -4.25629       -0.41019       -0.54491
C         -3.82166       -1.56298       -0.78319
O         -2.56157       -1.77135       -0.70739
C         -4.72165       -2.68778       -1.17777
H         -4.65983       -2.82419       -2.26832
H         -4.39026       -3.62172       -0.70500
H         -5.75844       -2.45694       -0.90556
F          4.53141       -1.49259        0.68571
F          4.76567        0.61879        0.37026
F          4.64260       -0.71596       -1.31320
