42
Benzothiophene_H9_Int2_Sub20.log	Energy: -908672.6043560
C          0.61968       -0.78077       -0.94389
C         -0.75223       -0.62945       -0.68799
C          0.99291       -1.79560       -1.82880
C         -1.73606       -1.46190       -1.28032
S         -1.48159        0.54040        0.37385
C          0.03188       -2.62172       -2.43755
H          2.05092       -1.95169       -2.05633
C         -1.32030       -2.46633       -2.16977
C         -3.05809       -1.11594       -0.83940
C         -3.08768       -0.07715        0.04446
H          0.36098       -3.40076       -3.12973
H         -2.06049       -3.11726       -2.64117
H         -3.95146       -1.63741       -1.18283
C         -4.27883        0.56965        0.71604
O          2.85996       -1.12848        0.88660
C          2.37640       -2.09836        1.46947
O          1.12408       -2.44829        1.39301
C          3.21394       -2.98174        2.32985
H          4.21952       -2.56234        2.43505
H          2.73616       -3.09786        3.31281
H          3.26604       -3.98110        1.87247
H          0.66850       -1.88593        0.71938
Pd         1.91704        0.41941       -0.10649
O          2.96678        2.30671        0.42662
C          2.12957        2.86867       -0.31602
O          1.23734        2.15981       -0.89890
C          2.14403        4.34398       -0.56280
H          2.82832        4.84054        0.13504
H          2.47439        4.53073       -1.59571
H          1.12723        4.74843       -0.46480
C         -5.56828       -0.12896        0.28419
H         -6.43186        0.34350        0.77631
H         -5.71945       -0.05687       -0.80336
H         -5.56189       -1.19347        0.56310
C         -4.12871        0.45704        2.24021
H         -3.21598        0.96196        2.59176
H         -4.99020        0.92232        2.74460
H         -4.07190       -0.59677        2.55233
C         -4.34713        2.05050        0.31433
H         -5.21213        2.53648        0.79263
H         -3.43924        2.59187        0.62098
H         -4.44787        2.15658       -0.77625
