30
Benzo13dioxol_H8_Int2_Sub10.log	Energy: -919036.8900905
C          0.53492       -0.17486       -0.16288
C          0.96118       -1.25931        0.58629
C          1.52439        0.45082       -0.95731
C          2.28450       -1.70980        0.57183
O          0.25496       -2.01257        1.47580
C          2.83904       -0.00757       -0.96437
H          1.26479        1.30503       -1.58554
C          3.25941       -1.10566       -0.19428
O          2.41180       -2.75278        1.42896
C          1.08710       -3.10553        1.79402
Cl         4.01200        0.79716       -1.96039
H          4.29216       -1.45136       -0.20242
H          1.04341       -3.30686        2.87451
H          0.77168       -3.99804        1.21790
O         -0.93558        2.31632        0.27685
C         -0.16533        2.74156        1.13820
O          0.68956        1.99476        1.77713
C         -0.14152        4.18213        1.51621
H         -0.98270        4.70761        1.05308
H         -0.17380        4.27866        2.61026
H          0.80893        4.62122        1.17685
H          0.68575        1.09343        1.36890
Pd        -1.35291        0.35594       -0.21471
O         -3.53078        0.22051       -0.49451
C         -3.33326       -0.98905       -0.76080
O         -2.13796       -1.44272       -0.72111
C         -4.44446       -1.91111       -1.14689
H         -4.40277       -2.08216       -2.23339
H         -4.31627       -2.88343       -0.65262
H         -5.41322       -1.46692       -0.88939
