33
Benzo13dioxol_H9_Int2_Sub17.log	Energy: -842110.3479983
C         -0.06530       -0.32820        0.02340
C          0.23714       -1.57166        0.62271
C          0.96005        0.48124       -0.47415
C          1.56720       -1.92836        0.70036
H         -0.54940       -2.23581        0.98460
C          2.31306        0.10218       -0.38460
H          0.72850        1.43028       -0.96008
C          2.58886       -1.11539        0.21034
O          2.12033       -3.04122        1.25068
C          3.41643        0.97097       -0.91206
O          3.78570       -1.70072        0.44533
C          3.49455       -3.00361        0.92295
H          4.09891       -3.21077        1.81934
H          3.71241       -3.74412        0.12911
O         -1.56580        2.16978        0.00987
C         -1.02061        2.67445        0.99215
O         -0.47256        1.97232        1.94547
C         -0.91910        4.14923        1.16027
H         -1.58846        4.65573        0.45750
H         -1.14919        4.42764        2.19732
H          0.12149        4.44919        0.96061
H         -0.47124        1.02601        1.66415
Pd        -1.95661        0.14661       -0.17885
O         -4.14413       -0.12749       -0.47375
C         -3.89371       -1.35319       -0.49241
O         -2.68264       -1.74175       -0.33040
C         -4.95370       -2.38100       -0.72685
H         -5.94501       -1.95595       -0.52955
H         -4.90647       -2.70300       -1.77849
H         -4.77295       -3.26378       -0.09946
F          2.94415        2.12441       -1.39739
F          4.09360        0.37256       -1.89574
F          4.30102        1.27560        0.04332
