33
Benzofuran_H9_Int2_Sub17.log	Energy: -818835.2838483
C         -0.52289        1.12420        0.29265
C          0.85234        1.12646        0.04242
C         -1.03236        2.34895        0.73993
C          1.69481        2.24087        0.22806
O          1.58926        0.06262       -0.38458
C         -0.21900        3.48143        0.93411
H         -2.10695        2.43149        0.92122
C          1.14510        3.44762        0.68307
C          3.01611        1.79052       -0.12154
C          2.87063        0.48760       -0.47090
H         -0.68092        4.40710        1.28548
H          1.77173        4.32869        0.83491
H          3.94538        2.35466       -0.11162
C          3.86854       -0.52766       -0.90973
O         -0.40798       -1.82734        0.44429
C          0.31485       -1.85132        1.43907
O          0.34988       -0.89179        2.32447
C          1.25018       -2.97812        1.69132
H          0.88959       -3.88317        1.19069
H          2.22090       -2.69530        1.25418
H          1.38848       -3.13977        2.76717
H         -0.19729       -0.14137        1.99441
Pd        -1.76315       -0.36437       -0.04572
O         -3.63367       -1.39257       -0.60541
C         -4.10555       -0.24777       -0.79352
O         -3.36083        0.77031       -0.56774
C         -5.49448       -0.03099       -1.29982
H         -5.94372        0.84515       -0.81399
H         -5.44801        0.17222       -2.38077
H         -6.10316       -0.92771       -1.13312
F          5.08202        0.01412       -0.95999
F          3.58109       -1.02974       -2.10838
F          3.91978       -1.56565       -0.05656
