30
Benzene_H10_Int2_Sub13.log	Energy: -661621.5736188
C         -0.87497        0.61102       -0.59877
C         -1.37819        1.53141        0.33967
C         -1.57397        0.44511       -1.80047
C         -2.53793        2.26274        0.06070
C         -0.72460        1.75101        1.66840
C         -2.72508        1.18464       -2.07604
H         -1.21004       -0.27027       -2.54298
C         -3.21189        2.09974       -1.14529
H         -2.91657        2.97122        0.80398
H         -3.24410        1.04265       -3.02777
H         -4.11282        2.68019       -1.35490
O         -0.37810       -2.15698       -0.32485
C         -1.27574       -2.48979        0.44609
O         -1.65942       -1.79162        1.47548
C         -2.03241       -3.75868        0.24897
H         -1.54811       -4.37029       -0.51893
H         -2.10519       -4.30514        1.19899
H         -3.05684       -3.50885       -0.06705
H         -1.15806       -0.94908        1.55850
Pd         0.76002       -0.43560       -0.34190
O          2.88931       -0.99512       -0.17556
C          3.13150        0.22664       -0.32567
O          2.15741        1.03890       -0.47627
C          4.52609        0.76758       -0.32879
H          4.63476        1.49423        0.48945
H          5.25174       -0.04536       -0.21013
H          4.70863        1.30615       -1.26978
F         -0.62387        0.55105        2.35802
F          0.52381        2.22861        1.57902
H         -1.31406        2.42514        2.31149
