33
Benzo13dioxol_H8_deriv1_Int2_Sub30.log	Energy: -943693.6610779
C         -0.51458       -0.08063       -0.19490
C         -1.02121        1.01584        0.48343
C         -1.44879       -0.82420       -0.95377
C         -2.36926        1.38008        0.42200
O         -0.37247        1.87315        1.31549
C         -2.79010       -0.45488       -1.00273
H         -1.12477       -1.69880       -1.52103
C         -3.29029        0.66401       -0.31449
O         -2.57433        2.47595        1.18888
C         -1.27792        2.93636        1.58181
Cl        -3.89630       -1.40150       -1.95005
H         -4.34201        0.94322       -0.36108
H         -1.29610        3.11057        2.66999
C         -0.89317        4.17217        0.81078
O          1.16799       -2.40051        0.41892
C          0.42425       -2.83305        1.29987
O         -0.51077       -2.12797        1.86944
C          0.53149       -4.23723        1.78577
H          1.42238       -4.71488        1.36583
H          0.56345       -4.24697        2.88412
H         -0.37091       -4.78801        1.48007
H         -0.58471       -1.26134        1.39593
Pd         1.41078       -0.45300       -0.21634
O          3.57076       -0.13755       -0.51747
C          3.26196        1.02622       -0.86749
O          2.03006        1.37019       -0.85366
C          4.28411        2.01562       -1.32719
H          4.26521        2.05909       -2.42697
H          4.03918        3.01699       -0.94913
H          5.28428        1.70730       -1.00009
H          0.10839        4.50409        1.11748
H         -1.61656        4.97721        1.00162
H         -0.87526        3.94721       -0.26563
