33
Benzo13dioxol_H9_Int2_Sub30.log	Energy: -655371.0987231
C          0.30369        0.16154       -0.31289
C          1.16009       -0.65649        0.45913
C          0.83811        1.11178       -1.19229
C          2.51860       -0.45820        0.31748
H          0.76735       -1.43523        1.11495
C          2.22680        1.29006       -1.33366
H          0.16759        1.73004       -1.79470
C          3.04318        0.49308       -0.55886
O          3.54228       -1.12060        0.91615
H          2.64464        2.02021       -2.02853
O          4.39923        0.43901       -0.51872
C          4.73204       -0.42336        0.56506
H          5.02970        0.20813        1.42802
C          5.81887       -1.38062        0.17428
O         -2.07638        1.85572       -0.28930
C         -1.61435        2.71651        0.45980
O         -0.60609        2.50937        1.26004
C         -2.17514        4.09568        0.50521
H         -3.09116        4.15022       -0.09157
H         -2.37223        4.37984        1.54834
H         -1.42508        4.79808        0.11151
H         -0.22516        1.61969        1.05063
Pd        -1.62469       -0.16382       -0.18916
O         -3.53611       -1.30752       -0.01364
C         -2.80835       -2.32297        0.05334
O         -1.53560       -2.18409        0.01329
C         -3.37599       -3.70407        0.15000
H         -4.42011       -3.66352        0.48246
H         -3.33564       -4.17318       -0.84503
H         -2.77090       -4.31676        0.83135
H          6.72457       -0.82500       -0.10501
H          5.48553       -1.98496       -0.68081
H          6.05277       -2.04461        1.01772
