33
Benzoisoxazole_H11_Int2_Sub32.log	Energy: -689302.8706872
C         -0.01089       -0.81852        0.21624
C         -1.32650       -0.47493       -0.12760
C          0.11722       -2.08309        0.80041
C         -2.42792       -1.30283        0.11165
O         -1.75228        0.67889       -0.69195
C         -0.97996       -2.93496        1.04176
H          1.11979       -2.43038        1.06345
C         -2.27128       -2.56016        0.70312
C         -3.52434       -0.50783       -0.36696
N         -3.12718        0.64601       -0.82674
H         -0.79911       -3.90863        1.50274
H         -3.13018       -3.20741        0.88750
O         -4.79083       -0.89026       -0.34291
O          0.62993        2.02528       -0.17815
C         -0.15493        2.42236        0.68159
O         -0.40723        1.75964        1.77970
C         -0.91569        3.68679        0.51903
H         -1.07689        4.17739        1.48668
H         -0.40246        4.34679       -0.18823
H         -1.89677        3.40835        0.10068
H          0.02871        0.87991        1.71416
Pd         1.61967        0.22959       -0.12798
O          3.75851        0.65069       -0.48864
C          3.93128       -0.58519       -0.38752
O          2.91902       -1.33015       -0.13725
C          5.26952       -1.22199       -0.57855
H          5.39580       -2.05896        0.12072
H          5.32422       -1.62757       -1.60053
H          6.06520       -0.47864       -0.44920
C         -5.73250        0.02808       -0.86362
H         -5.71615        0.97075       -0.29445
H         -5.51336        0.25731       -1.91810
H         -6.71448       -0.45095       -0.77483
