39
Benzofuran_H9_deriv1_Int2_Sub29.log	Energy: -969719.0838252
C         -0.31747        0.74012       -0.00513
C          1.03208        0.66637       -0.35214
C         -0.78336        2.01748        0.32891
C          1.90865        1.76715       -0.36098
O          1.70858       -0.45955       -0.69967
C          0.07804        3.12985        0.32381
H         -1.83517        2.16824        0.57912
C          1.42216        3.03426       -0.01482
C          3.18754        1.23176       -0.74912
C          3.00239       -0.10486       -0.93954
Cl        -0.57312        4.68175        0.75801
H          2.06147        3.91760       -0.00504
H          4.12063        1.77517       -0.87245
C          3.91308       -1.21492       -1.34377
O         -0.23130       -2.03147        0.94852
C          0.43172       -1.76961        1.95054
O          0.51316       -0.57957        2.47800
C          1.22994       -2.81468        2.64936
H          0.94231       -3.80884        2.29235
H          2.29439       -2.63834        2.43169
H          1.09466       -2.72973        3.73584
H          0.05754        0.06633        1.88533
Pd        -1.54366       -0.79000       -0.04700
O         -3.36888       -1.96513       -0.46047
C         -3.81614       -0.91745       -0.98219
O         -3.08618        0.13484       -0.97953
C         -5.16067       -0.86173       -1.63248
H         -5.64844        0.09720       -1.41290
H         -5.02844       -0.92693       -2.72337
H         -5.77958       -1.70252       -1.29731
H          3.51627       -1.61317       -2.29669
C          5.32900       -0.71164       -1.58579
H          5.97676       -1.53432       -1.92176
H          5.35333        0.07342       -2.35583
H          5.76339       -0.29743       -0.66209
C          3.87292       -2.35271       -0.32158
H          2.84519       -2.71576       -0.17807
H          4.49096       -3.19806       -0.65925
H          4.26366       -2.01201        0.65121
