36
Benzene_H10_Int2_Sub159.log	Energy: -586429.6110986
C          0.40315       -0.11261       -0.19306
C          1.06590       -0.96077        0.70613
C          1.16985        0.61725       -1.11124
C          2.45631       -1.05576        0.69617
H          0.48509       -1.56752        1.40572
C          2.56067        0.50379       -1.12031
H          0.68168        1.27815       -1.83332
C          3.22938       -0.32669       -0.21635
H          2.94544       -1.72311        1.41185
H          3.14184        1.07567       -1.85042
C          4.73940       -0.43666       -0.23176
O         -1.57715        2.00113       -0.46280
C         -0.99170        2.81612        0.24982
O         -0.10149        2.48563        1.14389
C         -1.24942        4.27899        0.13845
H         -2.10045        4.46239       -0.52514
H         -1.43517        4.69922        1.13666
H         -0.34817        4.76901       -0.25996
H          0.09464        1.52122        1.04612
Pd        -1.55180       -0.05312       -0.18543
O         -3.66062       -0.79045       -0.06944
C         -3.15125       -1.91683        0.12652
O         -1.87694       -2.03086        0.16117
C         -3.99625       -3.13431        0.33881
H         -4.51346       -3.04469        1.30585
H         -4.76758       -3.18421       -0.44202
H         -3.38423       -4.04393        0.33370
H          5.09795        0.23051       -1.03460
C          5.35376        0.04896        1.08074
H          6.45378        0.02080        1.03349
H          5.04628        1.08079        1.30780
H          5.04131       -0.58577        1.92536
C          5.19743       -1.85473       -0.57135
H          4.77567       -2.19089       -1.53021
H          6.29542       -1.90630       -0.64096
H          4.87915       -2.57186        0.20207
