33
Benzo13dioxol_H8_deriv1_Int2_Sub6.log	Energy: -943688.5444535
C          0.50117       -0.20336       -0.09612
C          0.91872       -1.19026        0.78190
C          1.47873        0.31862       -0.98885
C          2.23100       -1.65906        0.83050
O          0.19767       -1.81268        1.75790
C          2.79108       -0.17050       -0.91418
C          1.12296        1.37854       -1.99035
C          3.20296       -1.16454       -0.01133
O          2.34465       -2.58371        1.81805
C          1.01482       -2.86748        2.21878
Cl         3.99438        0.46643       -1.99758
H          4.23443       -1.51291        0.01692
H          0.96420       -2.92701        3.31597
H          0.68655       -3.82181        1.76090
O         -1.16283        2.16987        0.63041
C         -0.27822        2.67348        1.32206
O          0.84403        2.08256        1.61266
C         -0.42648        4.04364        1.89025
H         -1.41776        4.44421        1.65578
H         -0.27132        4.00680        2.97796
H          0.35611        4.69358        1.47158
H          0.88141        1.20856        1.14262
Pd        -1.40941        0.27234       -0.14310
O         -3.57634        0.04140       -0.48988
C         -3.29529       -1.10641       -0.90746
O         -2.07179       -1.48191       -0.91034
C         -4.33834       -2.04764       -1.41852
H         -4.21166       -2.16828       -2.50485
H         -4.20395       -3.03714       -0.96013
H         -5.34031       -1.65645       -1.20700
H          0.06103        1.64691       -1.91158
H          1.31344        1.02775       -3.01665
H          1.73437        2.28460       -1.85050
