45
Benzothiophene_H13_deriv1_Int2_Sub20.log	Energy: -1120048.9458274
C         -0.74564        1.00333       -0.73543
C          0.70764        1.04211       -0.59693
C         -1.18650        1.97534       -1.59411
C          1.26576        2.03282       -1.43922
C          1.58910        0.25391        0.20170
H         -2.21597        2.14534       -1.91196
S          0.06580        2.94859       -2.29106
C          2.64254        2.20131       -1.54637
C          2.98115        0.28680       -0.03242
C          0.95666       -0.49083        1.35971
C          3.45955        1.30526       -0.88904
H          3.06879        2.99046       -2.16911
C          4.04827       -0.69863        0.51354
H          4.53254        1.40240       -1.03838
O         -3.04133        0.48090        1.16702
C         -2.87552        1.54668        1.75990
O         -1.96463        2.41954        1.44901
C         -3.72696        1.91817        2.92632
H         -4.57204        1.22742        3.01142
H         -3.11165        1.86238        3.83742
H         -4.07287        2.95584        2.82623
H         -1.44577        2.08169        0.66844
Pd        -1.95103       -0.49007       -0.28776
O         -2.83019       -2.49836       -0.43139
C         -1.94805       -2.73046       -1.29227
O         -1.13889       -1.79419       -1.61477
C         -1.79272       -4.07279       -1.93076
H         -1.59479       -3.95919       -3.00506
H         -0.92299       -4.57765       -1.48326
H         -2.68901       -4.68109       -1.76097
F          1.78586       -0.62977        2.40111
F          0.50572       -1.71153        1.05433
F         -0.08625        0.19917        1.85577
C          3.51328       -2.13375        0.65599
H          4.35968       -2.81484        0.83037
H          2.82142       -2.27201        1.48992
H          3.00979       -2.45608       -0.26816
C          5.21372       -0.81252       -0.49097
H          5.82664        0.09750       -0.55163
H          5.88527       -1.61838       -0.16032
H          4.85867       -1.06171       -1.50253
C          4.64447       -0.18779        1.83447
H          5.44095       -0.86911        2.17416
H          5.09233        0.80819        1.69313
H          3.89544       -0.11296        2.62995
