27
Benzene_H10_Int2_Sub5.log	Energy: -2127228.0208702
C         -0.24757        0.43797        0.54784
C         -1.33488       -0.23739       -0.02366
C         -0.48329        1.54018        1.38240
C         -2.63117        0.21092        0.23064
H         -1.17298       -1.12209       -0.64288
C         -1.78829        1.96234        1.63578
H          0.35417        2.06705        1.84707
C         -2.87325        1.30681        1.05732
Br        -4.09305       -0.69483       -0.55503
H         -1.96667        2.81555        2.29553
H         -3.89585        1.63603        1.24752
O          2.35520        1.65199        0.10360
C          1.97648        2.51708       -0.68609
O          0.90104        2.40329       -1.41606
C          2.72135        3.79311       -0.86738
H          3.67411        3.75300       -0.33000
H          2.88437        3.97792       -1.93825
H          2.10593        4.62053       -0.48293
H          0.42037        1.58865       -1.13578
Pd         1.55246       -0.25419        0.21408
O          3.18405       -1.73498       -0.09713
C          2.28638       -2.60264       -0.00039
O          1.07702       -2.22674        0.19013
C          2.58597       -4.06321       -0.11785
H          2.87861       -4.28413       -1.15526
H          3.44124       -4.31344        0.52477
H          1.71141       -4.66653        0.15240
