32
Benzoisoxazole_H10_Int2_Sub6.log	Energy: -642133.4057081
C          0.55954       -0.33174        0.04651
C          0.96995       -1.02107        1.22988
C          1.46429       -0.02742       -0.97289
C          2.30315       -1.39740        1.37819
C         -0.03125       -1.34636        2.30324
C          2.78532       -0.43277       -0.78969
H          1.16196        0.50171       -1.87891
C          3.21735       -1.10223        0.35827
H          2.62474       -1.92145        2.28177
O          3.82356       -0.25125       -1.62371
C          4.61302       -1.28830        0.09654
N          4.95249       -0.79094       -1.05685
H          5.37422       -1.76885        0.71113
O         -0.91549        2.16427       -0.34014
C         -0.14420        2.85485        0.32494
O          0.74897        2.36733        1.14049
C         -0.16164        4.34202        0.24024
H         -0.18351        4.77036        1.25194
H          0.76999        4.68100       -0.23770
H         -1.02502        4.67663       -0.34355
H          0.77478        1.38498        1.03590
Pd        -1.32396        0.14188       -0.21751
O         -3.51490       -0.11016       -0.50445
C         -3.30124       -1.33580       -0.36906
O         -2.10420       -1.73871       -0.15130
C         -4.39190       -2.35322       -0.47580
H         -5.37294       -1.86664       -0.42383
H         -4.29706       -2.87588       -1.43975
H         -4.28594       -3.10439        0.31854
H         -0.50556       -0.43476        2.70190
H          0.44215       -1.87705        3.14106
H         -0.84062       -1.97076        1.89594
