30
Benzene_H10_Int2_Sub72.log	Energy: -537130.3376940
C         -0.80713       -0.86820       -0.08155
C         -1.11278       -1.49213       -1.29883
C         -1.64136       -1.07146        1.03933
C         -2.24852       -2.29783       -1.42630
H         -0.44990       -1.35529       -2.15788
C         -2.76888       -1.88683        0.89058
C         -1.32044       -0.44878        2.36806
C         -3.07892       -2.49195       -0.32758
H         -2.47381       -2.77448       -2.38354
H         -3.41812       -2.05215        1.75557
H         -3.96890       -3.11994       -0.41274
O         -0.29672        2.00633        0.19033
C         -1.36661        2.34890       -0.31113
O         -2.16903        1.54411       -0.94742
C         -1.84893        3.75698       -0.21960
H         -1.08944        4.38572        0.25583
H         -2.08523        4.12976       -1.22636
H         -2.78174        3.78057        0.36317
H         -1.81963        0.61751       -0.89978
Pd         0.79504        0.25125        0.02296
O          2.97161        0.78587        0.04650
C          3.17004       -0.44368       -0.07278
O          2.16841       -1.23800       -0.14686
C          4.54748       -1.02878       -0.11224
H          4.62034       -1.76229       -0.92688
H          5.29490       -0.23636       -0.23589
H          4.73534       -1.56477        0.83035
H         -2.07901       -0.69965        3.12300
H         -1.25271        0.64817        2.29771
H         -0.34173       -0.79821        2.73331
