34
Benzofuran_H9_deriv1_Int2_Sub16.log	Energy: -967575.0570305
C         -0.17514       -0.08201       -0.03160
C         -0.98611        0.89231       -0.62177
C         -0.86834       -1.13306        0.57749
C         -2.39119        0.85643       -0.61979
O         -0.56442        2.01644       -1.25947
C         -2.27362       -1.18872        0.59872
H         -0.31538       -1.95492        1.03663
C         -3.06707       -0.20484        0.00362
C         -2.81743        2.04354       -1.31020
C         -1.67483        2.68545       -1.66316
Cl        -3.04641       -2.51078        1.41519
O         -4.41920       -0.22056        0.03291
H         -3.83773        2.36390       -1.50404
H         -1.49295        3.61283       -2.20122
O          1.98962        1.88989        0.23865
C          1.40182        2.55530        1.08931
O          0.45801        2.08236        1.85523
C          1.71402        3.99546        1.30009
H          2.67381        4.24419        0.83569
H          0.91532        4.58844        0.82789
H          1.71608        4.23315        2.37180
H          0.23167        1.16905        1.55367
Pd         1.78745       -0.12709       -0.11180
O          3.82160       -0.95791       -0.32602
C          3.25687       -2.06508       -0.48334
O          1.97846       -2.11973       -0.42322
C          4.02163       -3.31720       -0.76698
H          3.56554       -4.16726       -0.24262
H          3.97171       -3.52444       -1.84697
H          5.07179       -3.19436       -0.47641
C         -5.03881       -1.10146       -0.88199
H         -4.77414       -0.84378       -1.92227
H         -4.76016       -2.14958       -0.68691
H         -6.12250       -0.98855       -0.74772
