35
Benzoisoxazole_H8_deriv1_Int2_Sub22.log	Energy: -666788.2725556
C         -0.39302       -0.39379       -0.05167
C         -1.39223        0.30637       -0.75578
C         -0.81909       -1.49854        0.68273
C         -2.72629       -0.11149       -0.68113
C         -1.47647        1.44501       -1.62230
C         -2.17406       -1.90939        0.74820
H         -0.07686       -2.09443        1.22117
C         -3.17386       -1.20948        0.05859
O         -3.49334        0.70906       -1.42341
H         -0.67609        2.09245       -1.98035
N         -2.70030        1.67086       -2.00207
C         -2.54322       -3.11322        1.56404
C         -4.62000       -1.59470        0.09187
O          1.00511        2.10853        0.19496
C          0.27947        2.54791        1.08868
O         -0.39681        1.79199        1.90711
C          0.08955        4.01077        1.28475
H          0.04377        4.25099        2.35474
H          0.89111        4.56564        0.78617
H         -0.87813        4.28954        0.83794
H         -0.33057        0.85420        1.60199
Pd         1.49109        0.11841       -0.09158
O          3.69946       -0.07075       -0.23479
C          3.49209       -1.29906       -0.36137
O          2.28740       -1.73318       -0.32355
C          4.60225       -2.27546       -0.58480
H          5.56095       -1.83569       -0.28514
H          4.40751       -3.20520       -0.03408
H          4.64281       -2.52440       -1.65634
H         -3.26864       -2.85838        2.35398
H         -1.66129       -3.55821        2.04353
H         -3.01681       -3.88875        0.94022
H         -4.77149       -2.61383       -0.29896
H         -5.22483       -0.90612       -0.51194
H         -5.01488       -1.58543        1.12055
