39
Benzo13dioxol_H9_Int2_Sub21.log	Energy: -704666.0581406
C         -0.10917       -0.33610       -0.00240
C         -0.43518       -1.53592       -0.67457
C         -1.11245        0.44794        0.57703
C         -1.77304       -1.86787       -0.73034
H          0.33241       -2.18102       -1.10426
C         -2.48095        0.10734        0.51003
H         -0.83412        1.36342        1.10650
C         -2.76336       -1.07006       -0.15670
O         -2.36185       -2.93387       -1.33930
C         -3.56710        0.96646        1.11454
O         -3.98383       -1.62680       -0.40739
C         -3.71386       -2.91228       -0.92921
H         -4.36784       -3.10787       -1.79266
H         -3.87648       -3.67623       -0.14185
O          1.39061        2.16273       -0.10323
C          0.75862        2.65128       -1.03984
O          0.06718        1.94566       -1.89083
C          0.71389        4.12251       -1.26814
H          1.46752        4.62341       -0.65200
H          0.86711        4.34148       -2.33353
H         -0.28959        4.48703       -0.99895
H          0.03237        1.01291       -1.56154
Pd         1.78308        0.14242        0.15557
O          3.98820       -0.12932        0.42012
C          3.72967       -1.35158        0.48207
O          2.51584       -1.74216        0.35829
C          4.79071       -2.37834        0.72594
H          5.78085       -1.96129        0.50675
H          4.75553       -2.67859        1.78444
H          4.59943       -3.27374        0.11976
H         -4.52719        0.49144        0.85493
C         -3.45986        1.00611        2.63848
H         -4.28247        1.59462        3.07434
H         -3.49820       -0.00660        3.06602
H         -2.51129        1.46648        2.95801
C         -3.56361        2.37204        0.51451
H         -3.64798        2.33813       -0.58208
H         -4.40321        2.96734        0.90608
H         -2.63379        2.90870        0.76424
