36
Benzothiophene_H13_deriv1_Int2_Sub30.log	Energy: -983864.3987425
C          0.44590        0.44661       -0.81324
C          1.65420       -0.24852       -0.38400
C          0.70752        1.30017       -1.85408
C          2.78023        0.16883       -1.14991
C          1.88407       -1.24017        0.60864
H         -0.01699        1.90853       -2.39725
S          2.36750        1.33695       -2.36193
C          4.07273       -0.32141       -0.94281
C          3.17241       -1.72266        0.80259
C          0.78922       -1.81456        1.49135
C          4.26079       -1.26853        0.04553
H          4.90505        0.03436       -1.55372
H          3.33192       -2.48960        1.55998
H          5.25631       -1.67708        0.23152
O         -1.28130        1.79016        1.20961
C         -0.51574        2.73993        1.38028
O          0.53734        2.96876        0.65408
C         -0.73981        3.71990        2.48149
H         -1.68866        3.51129        2.98585
H          0.09271        3.64788        3.19746
H         -0.73118        4.74092        2.07486
H          0.62488        2.26542       -0.04861
Pd        -1.41532        0.28107       -0.20729
O         -3.49139       -0.41050       -0.10255
C         -3.18115       -1.21658       -1.01450
O         -1.99661       -1.18057       -1.49118
C         -4.14218       -2.23564       -1.53436
H         -4.02639       -2.34709       -2.62054
H         -3.90730       -3.20645       -1.07161
H         -5.17045       -1.95582       -1.27585
F          1.24363       -2.96490        2.06883
F         -0.26982       -2.19166        0.72523
C          0.31886       -0.90807        2.60105
H         -0.45036       -1.43493        3.18280
H         -0.11187        0.01273        2.19337
H          1.16632       -0.66005        3.25367
