33
Benzofuran_H13_Int2_Sub22.log	Energy: -632093.2934674
C          0.49605        0.29600       -0.45846
C          1.58365       -0.43277        0.17148
C          1.11569        1.15772       -1.32161
C          2.76409        0.08900       -0.38133
C          1.67107       -1.45451        1.12771
H          0.72509        1.89116       -2.02436
O          2.47333        1.05553       -1.28881
C          4.05123       -0.33016       -0.03837
C          2.93643       -1.89533        1.48924
H          0.76521       -1.89319        1.54919
C          4.09846       -1.34269        0.91994
C          5.26529        0.27472       -0.67065
H          3.03955       -2.69327        2.22836
H          5.07633       -1.71895        1.23278
O         -1.92510        1.92157       -0.13309
C         -1.38404        2.79445        0.54902
O         -0.21627        2.65511        1.10446
C         -2.04384        4.10858        0.78946
H         -3.04302        4.11750        0.34264
H         -2.10420        4.29092        1.87206
H         -1.42410        4.90910        0.35935
H          0.18881        1.81048        0.76575
Pd        -1.41294       -0.07135       -0.23263
O         -3.28683       -1.20901       -0.01581
C         -2.57273       -2.23497       -0.10805
O         -1.30695       -2.09575       -0.24090
C         -3.15108       -3.61284       -0.09624
H         -2.50194       -4.29148        0.47275
H         -4.16427       -3.59556        0.32267
H         -3.19777       -3.98529       -1.13107
H          5.30608        1.36155       -0.49563
H          5.25756        0.13032       -1.76273
H          6.18475       -0.17377       -0.27053
