39
Benzofuran_H9_deriv1_Int2_Sub21.log	Energy: -969714.6097015
C         -0.16037        0.38376        0.06359
C          0.99141       -0.26920       -0.38416
C          0.04672        1.64221        0.63814
C          2.29350        0.25624       -0.27318
O          1.03769       -1.49783       -0.96062
C          1.33892        2.18358        0.75913
H         -0.80580        2.23303        0.97842
C          2.47266        1.51710        0.31391
C          3.17244       -0.74614       -0.84176
C          2.34473       -1.75468       -1.22524
Cl         1.51671        3.75004        1.49066
H          3.45539        1.97417        0.42747
C          4.66551       -0.70530       -0.98993
H          2.54969       -2.70915       -1.70575
O         -1.50688       -2.22257        0.32463
C         -0.79879       -2.60066        1.25535
O         -0.15823       -1.79246        2.05483
C         -0.59234       -4.04795        1.53544
H         -1.36265       -4.64170        1.03256
H          0.39756       -4.32982        1.14389
H         -0.58888       -4.23258        2.61745
H         -0.24690       -0.87081        1.71312
Pd        -1.99419       -0.28268       -0.15972
O         -4.16223       -0.24439       -0.58170
C         -4.01110        0.98310       -0.78128
O         -2.84556        1.49358       -0.63319
C         -5.13685        1.86551       -1.21381
H         -5.06154        2.84461       -0.72262
H         -5.05971        2.02938       -2.29964
H         -6.09923        1.38853       -0.99322
H          4.96058       -1.65311       -1.47327
C          5.10732        0.43691       -1.90572
H          6.19884        0.42132       -2.04906
H          4.62930        0.36139       -2.89337
H          4.84036        1.41737       -1.48226
C          5.36386       -0.64336        0.36921
H          5.06947       -1.49038        1.00632
H          6.45773       -0.66887        0.24677
H          5.11063        0.28191        0.90925
