42
Benzo13dioxol_H8_deriv1_Int2_Sub12.log	Energy: -1017630.0119786
C         -0.23381        0.02891       -0.13186
C          0.41689       -0.92393        0.62827
C          0.61913        0.83303       -0.91093
C          1.81038       -1.07693        0.63936
O         -0.14043       -1.79749        1.51059
C          2.00346        0.67583       -0.89756
H          0.20220        1.60670       -1.55828
C          2.68953       -0.29521       -0.11236
O          2.10875       -2.06780        1.53267
C          0.88508       -2.70345        1.83420
Cl         2.84894        1.78837       -1.95170
C          4.21850       -0.46174       -0.08623
H          0.84956       -2.94559        2.90629
H          0.78129       -3.62290        1.22250
O         -2.22180        2.13864        0.27153
C         -1.56813        2.72935        1.13174
O         -0.56691        2.19779        1.77283
C         -1.87182        4.13916        1.50524
H         -2.80916        4.45936        1.03931
H         -1.92751        4.22879        2.59895
H         -1.04472        4.78111        1.16600
H         -0.36607        1.31707        1.36683
Pd        -2.19051        0.13454       -0.21868
O         -4.28140       -0.47439       -0.53362
C         -3.81947       -1.61164       -0.79100
O         -2.55482       -1.79283       -0.73070
C         -4.69581       -2.75504       -1.18990
H         -4.60255       -2.91229       -2.27529
H         -4.36441       -3.67574       -0.69129
H         -5.74197       -2.53431       -0.94702
C          4.68249       -1.58000        0.85582
H          5.78145       -1.62709        0.81507
H          4.38763       -1.39728        1.89731
H          4.28879       -2.56169        0.56212
C          4.72485       -0.83258       -1.49010
H          4.48484       -0.07350       -2.24363
H          5.81936       -0.95398       -1.46527
H          4.28610       -1.78890       -1.81356
C          4.87349        0.83547        0.41670
H          5.96779        0.71143        0.43532
H          4.64133        1.70112       -0.21466
H          4.54185        1.05777        1.44269
