39
Benzofuran_H9_Int2_Sub21.log	Energy: -681396.7738171
C          0.30714        1.08990       -0.37103
C         -1.03330        1.04467        0.01634
C          0.69073        2.25537       -1.04791
C         -1.97290        2.05869       -0.24955
O         -1.64024        0.01869        0.66922
C         -0.22320        3.28845       -1.32620
H          1.73423        2.37114       -1.35161
C         -1.55465        3.20688       -0.93619
C         -3.21504        1.57819        0.29936
C         -2.95133        0.35425        0.83594
H          0.12980        4.17517       -1.85842
H         -2.25589        4.01384       -1.15942
H         -4.17766        2.08304        0.29508
C         -3.79146       -0.65568        1.54282
O          0.36241       -1.83231       -0.57006
C         -0.32675       -1.86776       -1.58784
O         -0.48861       -0.85545       -2.39346
C         -1.06737       -3.09912       -1.98070
H         -0.70077       -3.95723       -1.40804
H         -2.13501       -2.94175       -1.76359
H         -0.96937       -3.27200       -3.06061
H         -0.07301       -0.05342       -1.98913
Pd         1.60979       -0.31179        0.05487
O          3.50149       -1.24436        0.74283
C          3.88674       -0.07429        0.96885
O          3.10296        0.90150        0.69961
C          5.22332        0.22058        1.57176
H          5.65727        1.11871        1.11275
H          5.08922        0.42541        2.64501
H          5.89105       -0.64132        1.45469
H         -3.36329       -0.76527        2.55712
C         -5.23192       -0.18299        1.67820
H         -5.82766       -0.91992        2.23630
H         -5.29406        0.77651        2.21244
H         -5.69851       -0.05319        0.68876
C         -3.69585       -2.02044        0.85762
H         -2.65016       -2.35282        0.78904
H         -4.26007       -2.77793        1.42213
H         -4.11544       -1.97132       -0.16057
