45
Benzothiophene_H13_deriv1_Int2_Sub28.log	Energy: -1057810.2383959
C          0.02815        1.20326       -0.48925
C          1.40465        0.74215       -0.68058
C         -0.08709        2.54466       -0.75075
C          2.23836        1.82731       -1.09002
C          2.03737       -0.53016       -0.56444
H         -1.00567        3.13305       -0.73200
S          1.38368        3.32863       -1.22243
C          3.59923        1.69931       -1.37521
C          3.38807       -0.64540       -0.88452
C          1.38154       -1.81981       -0.09396
C          4.16966        0.44530       -1.27902
H          4.18422        2.56901       -1.68181
H          3.84910       -1.63086       -0.83426
H          5.22556        0.29879       -1.51529
O         -1.94325        0.83152        1.76894
C         -1.32802        1.55296        2.55271
O         -0.26858        2.23829        2.23517
C         -1.74633        1.67271        3.97855
H         -2.75895        1.27690        4.10858
H         -1.04516        1.08542        4.59198
H         -1.68134        2.71737        4.30996
H         -0.05920        2.09694        1.26995
Pd        -1.66414        0.24048       -0.19724
O         -3.44238       -0.95313       -0.65521
C         -2.95830       -1.08510       -1.80721
O         -1.85766       -0.50084       -2.08392
C         -3.61419       -1.93004       -2.85093
H         -3.54871       -1.43884       -3.83091
H         -3.07246       -2.88574       -2.92024
H         -4.65847       -2.12754       -2.58099
F          1.96434       -2.85890       -0.76425
F          0.07616       -1.85399       -0.46152
C          1.48248       -2.13640        1.42029
C          2.94629       -2.29654        1.83065
H          2.99489       -2.59222        2.88952
H          3.44552       -3.07809        1.24008
H          3.50948       -1.35870        1.71847
C          0.84173       -1.01785        2.23434
H         -0.21992       -0.90772        1.97597
H          0.90905       -1.25953        3.30637
H          1.34813       -0.05451        2.07376
C          0.73206       -3.44866        1.67109
H          0.79319       -3.71188        2.73778
H         -0.32853       -3.35729        1.39886
H          1.16763       -4.27167        1.08775
