38
Benzothiophene_H9_deriv1_Int2_Sub31.log	Energy: -894073.7142805
C          0.34005        0.00496       -0.08029
C          0.72870       -0.99811        0.82244
C          1.35761        0.70159       -0.73223
C          2.09307       -1.29449        1.07442
S         -0.32432       -2.01483        1.76605
C          2.72371        0.42774       -0.50969
H          1.09479        1.48755       -1.44801
C          3.08120       -0.56691        0.39112
C          2.23421       -2.34578        2.04288
C          1.03400       -2.80598        2.49080
C          3.78051        1.25274       -1.22857
H          4.13574       -0.79331        0.57168
H          3.19585       -2.73334        2.38232
H          0.86335       -3.59739        3.22054
O         -1.41672        2.31712        0.20277
C         -0.81497        2.79722        1.16268
O          0.05372        2.14420        1.88137
C         -1.03334        4.20913        1.58746
H         -1.84739        4.65572        1.00781
H         -1.26047        4.23820        2.66249
H         -0.10327        4.77692        1.43531
H          0.22166        1.26321        1.46575
Pd        -1.55444        0.35171       -0.42211
O         -3.66048       -0.01475       -1.03193
C         -3.28284       -1.18136       -1.28598
O         -2.05951       -1.49890       -1.08123
C         -4.20770       -2.21854       -1.83882
H         -5.24544       -1.86847       -1.79071
H         -3.93593       -2.41873       -2.88617
H         -4.08819       -3.15865       -1.28293
H          4.01359        2.13801       -0.60979
H          3.33404        1.65117       -2.15672
N          5.01997        0.60296       -1.56358
H          5.55537        0.37101       -0.73243
C          4.90495       -0.52706       -2.45295
H          5.90339       -0.94059       -2.66037
H          4.48500       -0.19428       -3.41674
H          4.26034       -1.35162       -2.08434
