46
Benzofuran_H13_deriv1_Int2_Sub19.log	Energy: -1042912.4974127
C          1.14474       -0.72977       -0.40654
C         -0.20655       -1.26397       -0.36906
C          1.89057       -1.79087       -0.84196
C         -0.11525       -2.60671       -0.77163
C         -1.45837       -0.73357       -0.04402
Cl         3.56264       -1.92425       -1.14148
O          1.17820       -2.92392       -1.05822
C         -1.21216       -3.45036       -0.85426
C         -2.58764       -1.54990       -0.12286
H         -1.53511        0.31761        0.23993
C         -2.44547       -2.89473       -0.52182
H         -1.10979       -4.49025       -1.16791
C         -3.95516       -0.99197        0.19617
H         -3.33995       -3.52097       -0.57722
O          3.33759        0.73770        0.90254
C          3.49208       -0.11010        1.78346
O          2.59270       -0.99558        2.09783
C          4.76466       -0.20130        2.55010
H          5.33805        0.72532        2.44334
H          4.55971       -0.42539        3.60491
H          5.34640       -1.03994        2.13629
H          1.86874       -0.95850        1.41669
Pd         1.61700        1.15507       -0.13609
O          1.47250        3.34078       -0.21960
C          0.40542        3.16552       -0.85408
O          0.01125        1.96657       -1.07136
C         -0.40357        4.30267       -1.38604
H         -1.47509        4.08871       -1.27727
H         -0.13458        5.23309       -0.87195
H         -0.19243        4.41382       -2.46068
H         -4.68224       -1.81713        0.08357
C         -4.36745        0.11265       -0.78580
H         -4.32381       -0.27583       -1.81598
H         -3.62560        0.92995       -0.73564
C         -5.75448        0.66238       -0.47327
H         -6.00789        1.47376       -1.17493
H         -6.50508       -0.13252       -0.63642
C         -5.85135        1.15240        0.96737
H         -6.87032        1.51171        1.18499
H         -5.18048        2.02093        1.09987
C         -5.45025        0.05837        1.95086
H         -6.18563       -0.76510        1.89667
H         -5.48692        0.43679        2.98540
C         -4.06179       -0.48965        1.64115
H         -3.31183        0.30595        1.79959
H         -3.79884       -1.30391        2.33565
