29
Benzoisoxazole_H11_Int2_Sub10.log	Energy: -905804.4836796
C         -0.54017       -0.30082       -0.11277
C         -1.63903        0.48712       -0.48673
C         -0.86430       -1.61156        0.24188
C         -2.96265        0.02852       -0.49282
O         -1.62849        1.78479       -0.86532
C         -2.19255       -2.08751        0.23464
H         -0.06620       -2.30490        0.51577
C         -3.26537       -1.28959       -0.12849
C         -3.69720        1.18714       -0.90523
N         -2.91090        2.20147       -1.11299
Cl        -2.47955       -3.73480        0.69825
H         -4.28428       -1.67724       -0.12416
H         -4.77095        1.30680       -1.05042
O          0.99240        2.21791       -0.02666
C          0.29084        2.75886        0.82701
O         -0.26793        2.10214        1.80979
C         -0.01045        4.21139        0.78488
H         -0.10683        4.62344        1.79673
H          0.75559        4.73745        0.20550
H         -0.98031        4.31673        0.27168
H         -0.10722        1.14280        1.66880
Pd         1.36365        0.20434       -0.12850
O          3.54935       -0.03994       -0.19720
C          3.32840       -1.27139       -0.25556
O          2.11214       -1.67624       -0.22277
C          4.42445       -2.27596       -0.39108
H          4.19295       -3.17214        0.19948
H          4.49555       -2.57972       -1.44681
H          5.38090       -1.83784       -0.08203
