39
Benzo13dioxol_H8_deriv1_Int2_Sub29.log	Energy: -992993.7093022
C         -0.34849        0.60538       -0.19741
C          0.89100        0.76397        0.39844
C         -0.86556        1.74219       -0.86113
C          1.60923        1.96151        0.33868
O          1.59832       -0.13165        1.13503
C         -0.14847        2.93514       -0.90153
H         -1.83384        1.69472       -1.36313
C          1.11597        3.07856       -0.30353
O          2.77936        1.81256        1.00378
C          2.90467        0.40846        1.25391
Cl        -0.82707        4.30300       -1.72996
H          1.66824        4.01623       -0.34952
H          3.24618        0.27275        2.29378
C          3.85804       -0.23730        0.25849
O         -3.01439       -0.43682        0.39339
C         -3.22653        0.34190        1.32402
O         -2.28939        0.99875        1.94532
C         -4.60766        0.60958        1.81297
H         -5.31274       -0.09213        1.35614
H         -4.63411        0.53460        2.90880
H         -4.88151        1.64238        1.54884
H         -1.43534        0.85765        1.46498
Pd        -1.19401       -1.16298       -0.24657
O         -1.41619       -3.33700       -0.56492
C         -0.20703       -3.32477       -0.89323
O          0.42466       -2.21137       -0.88450
C          0.53228       -4.57038       -1.26232
H          1.22706       -4.36855       -2.08825
H          1.12757       -4.89714       -0.39573
H         -0.17331       -5.36607       -1.52944
H          3.47039        0.02867       -0.74191
C          5.25586        0.34333        0.42056
H          5.93651       -0.06431       -0.34131
H          5.24801        1.43848        0.32377
H          5.67531        0.09065        1.40890
C          3.82481       -1.75341        0.40022
H          2.81528       -2.14022        0.20180
H          4.52231       -2.21783       -0.31288
H          4.13092       -2.06463        1.41337
