34
Benzofuran_H13_deriv1_Int2_Sub16.log	Energy: -967574.5487980
C          0.27086        0.09223       -0.15865
C          1.25621       -0.83732        0.37185
C          1.02446        1.01373       -0.82777
C          2.51524       -0.35065       -0.03005
C          1.16114       -2.00348        1.13977
Cl         0.56813        2.40343       -1.70152
O          2.35869        0.79073       -0.76767
C          3.71865       -0.98411        0.30985
C          2.34728       -2.63946        1.48463
H          0.18570       -2.39624        1.42778
C          3.59283       -2.14309        1.08268
O          4.96326       -0.59539       -0.01978
H          2.31742       -3.55532        2.07943
H          4.51651       -2.65483        1.35913
O         -2.05248        1.82438        0.37321
C         -1.43888        2.54769        1.15939
O         -0.32485        2.20427        1.73668
C         -1.92780        3.91410        1.49132
H         -2.98137        4.01680        1.21158
H         -1.77524        4.12510        2.55768
H         -1.32623        4.63650        0.91761
H         -0.00830        1.35797        1.32181
Pd        -1.67684       -0.14024       -0.09380
O         -3.63367       -1.11120       -0.19461
C         -3.00821       -2.16250       -0.47280
O         -1.72968       -2.11866       -0.52246
C         -3.70390       -3.44902       -0.77366
H         -3.14623       -4.29085       -0.34251
H         -4.73189       -3.42227       -0.39306
H         -3.73009       -3.58919       -1.86520
C          5.15987        0.50590       -0.87267
H          4.67188        0.35870       -1.84941
H          4.78359        1.44134       -0.42960
H          6.24423        0.58804       -1.02078
