30
Benzofuran_H13_deriv1_Int2_Sub10.log	Energy: -1184081.6719322
C          0.24741        0.14255       -0.18125
C          1.29238       -0.73718        0.31614
C          0.94168        1.11479       -0.84728
C          2.50900       -0.16888       -0.09914
C          1.30489       -1.92606        1.05744
Cl         0.39877        2.48431       -1.69846
O          2.29024        0.96285       -0.80924
C          3.74414       -0.73201        0.20650
C          2.53580       -2.49362        1.36249
H          0.36671       -2.39293        1.35980
C          3.74381       -1.90895        0.94865
Cl         5.20554        0.01337       -0.32447
H          2.57528       -3.42279        1.93524
H          4.70020       -2.37051        1.19901
O         -2.17967        1.73790        0.32385
C         -1.61868        2.50951        1.10364
O         -0.49834        2.23580        1.70626
C         -2.18183        3.85553        1.39615
H         -3.23526        3.89709        1.10059
H         -2.05439        4.10024        2.45854
H         -1.60987        4.59318        0.81151
H         -0.13175        1.40051        1.31444
Pd        -1.68114       -0.21068       -0.08726
O         -3.56938       -1.30938       -0.13755
C         -2.88005       -2.32636       -0.38973
O         -1.60667       -2.20101       -0.45119
C         -3.49291       -3.66295       -0.64725
H         -2.87780       -4.45483       -0.19993
H         -4.51688       -3.69223       -0.25616
H         -3.52041       -3.83453       -1.73428
