33
Benzofuran_H9_Int2_Sub14.log	Energy: -632092.1991661
C         -0.54496       -0.57671       -0.00122
C         -1.67784       -0.10107       -0.66841
C         -0.72410       -1.77758        0.69044
C         -2.92320       -0.75312       -0.65368
O         -1.76449        1.04654       -1.39372
C         -1.95766       -2.47016        0.73285
H          0.13675       -2.21634        1.20369
C         -3.05979       -1.95432        0.05753
C         -3.79719        0.07774       -1.44159
C         -3.03971        1.12860       -1.84806
C         -2.05022       -3.75960        1.49867
H         -4.01801       -2.47918        0.08207
H         -4.84664       -0.09038       -1.67298
H         -3.26375        1.99782       -2.46208
O          0.47754        2.16345        0.22426
C         -0.38117        2.51153        1.03195
O         -1.05085        1.68295        1.78448
C         -0.74993        3.94440        1.20143
H          0.02402        4.58570        0.76716
H         -1.70180        4.11454        0.67459
H         -0.91011        4.17545        2.26254
H         -0.84150        0.75747        1.50587
Pd         1.22463        0.26707       -0.07114
O          3.42830        0.44116       -0.24841
C          3.42361       -0.80434       -0.37843
O          2.30805       -1.43053       -0.32409
C          4.67624       -1.58307       -0.62537
H          4.64345       -2.53743       -0.08342
H          4.74417       -1.81096       -1.70022
H          5.55334       -0.99455       -0.33076
H         -1.77947       -3.61743        2.55696
H         -1.36021       -4.51437        1.08880
H         -3.06604       -4.17760        1.46360
