42
Benzo13dioxol_H8_deriv1_Int2_Sub28.log	Energy: -1017644.4537388
C         -0.55663        0.60520       -0.17012
C          0.67680        0.83425        0.41476
C         -1.14308        1.70825       -0.83354
C          1.33538        2.06189        0.32722
O          1.44445       -0.02753        1.12617
C         -0.48873        2.93559       -0.89241
H         -2.11409        1.60627       -1.32188
C          0.77772        3.14612       -0.31794
O          2.53547        1.97051        0.94409
C          2.70361        0.59984        1.31889
Cl        -1.24934        4.26253       -1.71611
H          1.28535        4.10721       -0.38794
H          2.94780        0.56884        2.39539
C          3.80096       -0.08916        0.50221
O         -3.11826       -0.68852        0.45744
C         -3.38432        0.07312        1.38853
O         -2.50695        0.83862        1.97047
C         -4.76936        0.18871        1.92448
H         -5.41028       -0.58206        1.48481
H         -4.75004        0.10337        3.01984
H         -5.16109        1.18804        1.68145
H         -1.65603        0.78463        1.46492
Pd        -1.25792       -1.22366       -0.24943
O         -1.27073       -3.40435       -0.64027
C         -0.07882       -3.25736       -0.99521
O          0.43666       -2.08551       -0.96104
C          0.77486       -4.40626       -1.42615
H          1.41426       -4.10880       -2.26783
H          1.43269       -4.69017       -0.59022
H          0.14884       -5.26546       -1.69466
C          5.11836        0.63181        0.78354
H          5.93952        0.15341        0.22869
H          5.06407        1.68673        0.47703
H          5.37477        0.59959        1.85508
C          3.86989       -1.54534        0.96503
H          2.92170       -2.06056        0.75291
H          4.67838       -2.07135        0.43487
H          4.07475       -1.61847        2.04566
C          3.46129       -0.03762       -0.98787
H          4.26303       -0.52239       -1.56608
H          2.52300       -0.57176       -1.20066
H          3.37378        0.99872       -1.34708
