36
Benzothiophene_H9_deriv1_Int2_Sub30.log	Energy: -859370.5823633
C          0.48611       -0.06346       -0.30184
C          0.92429       -1.16016        0.46081
C          1.44446        0.60805       -1.05602
C          2.28113       -1.56614        0.47412
S         -0.04928       -2.16684        1.49462
C          2.80588        0.22021       -1.08033
H          1.14128        1.47039       -1.65883
C          3.21253       -0.86154       -0.31082
C          2.48582       -2.69236        1.34118
C          1.33585       -3.10185        1.94441
C          3.75793        1.00919       -1.94759
H          4.25696       -1.17842       -0.30186
H          3.45454       -3.16882        1.49870
H          1.21667       -3.93166        2.64088
O         -1.00628        2.33096        0.45204
C         -0.21877        2.68145        1.33011
O          0.70974        1.91555        1.82835
C         -0.26181        4.05569        1.90615
H         -1.12437        4.60274        1.51263
H         -0.30972        3.99230        3.00246
H          0.67037        4.58129        1.65071
H          0.74215        1.06947        1.31794
Pd        -1.40159        0.44805       -0.30365
O         -3.60112        0.28817       -0.59198
C         -3.36619       -0.87289       -0.99802
O         -2.15699       -1.29266       -1.02183
C         -4.44953       -1.78719       -1.47514
H         -5.43415       -1.37097       -1.23214
H         -4.36108       -1.90895       -2.56519
H         -4.32482       -2.78052       -1.02250
H          3.68173        2.07318       -1.66206
H          3.38813        0.96555       -2.98708
C          5.21339        0.58019       -1.91235
H          5.82103        1.21738       -2.57151
H          5.33864       -0.45984       -2.25122
H          5.63511        0.65457       -0.89786
