33
Benzoisoxazole_H11_deriv1_Int2_Sub16.log	Energy: -977616.7041405
C         -0.18484       -0.06944       -0.04599
C         -1.03053        0.99155       -0.40082
C         -0.86055       -1.22160        0.36164
C         -2.42724        0.92781       -0.34876
O         -0.67612        2.22889       -0.81467
C         -2.26598       -1.30727        0.42228
H         -0.28570       -2.10953        0.63415
C         -3.08944       -0.23879        0.06684
C         -2.83053        2.23668       -0.75910
N         -1.80203        2.98687       -1.02368
Cl        -2.98586       -2.77706        0.99562
O         -4.43635       -0.26016        0.13930
H         -3.83632        2.64379       -0.85692
O          2.00377        1.89963       -0.08324
C          1.52088        2.62664        0.78421
O          0.83313        2.16789        1.79658
C          1.65116        4.10393        0.72579
H          1.71600        4.53360        1.73282
H          2.51422        4.38152        0.11154
H          0.73434        4.48173        0.24437
H          0.69656        1.20299        1.66362
Pd         1.78094       -0.13695       -0.15442
O          3.79870       -1.00474       -0.30824
C          3.22864       -2.11965       -0.32539
O          1.95027       -2.15485       -0.23266
C          3.98063       -3.40054       -0.47896
H          3.52840       -4.18323        0.14423
H          3.91194       -3.72621       -1.52830
H          5.03617       -3.25384       -0.22087
C         -5.10327       -0.99970       -0.86604
H         -4.88499       -0.58948       -1.86704
H         -4.82265       -2.06426       -0.84011
H         -6.17804       -0.90655       -0.66478
