32
Benzoisoxazole_H11_deriv1_Int2_Sub17.log	Energy: -1117196.3591919
C         -0.36976        0.43708        0.00631
C          0.89051       -0.12680       -0.23718
C         -0.33226        1.78949        0.34992
C          2.09598        0.57675       -0.13175
O          1.16664       -1.40850       -0.58297
C          0.87604        2.51274        0.45158
H         -1.26957        2.32139        0.52727
C          2.11180        1.93358        0.21392
C          3.06671       -0.42787       -0.44611
N          2.51076       -1.57591       -0.69938
Cl         0.79606        4.18815        0.88620
H          3.03588        2.50533        0.29367
C          4.55988       -0.27827       -0.44816
O         -1.40241       -2.32883        0.00918
C         -0.71362       -2.72860        0.94713
O         -0.39055       -1.97339        1.96437
C         -0.15615       -4.10356        0.97704
H         -0.10094       -4.48345        2.00445
H         -0.74848       -4.76282        0.33377
H          0.86810       -4.04083        0.57464
H         -0.71497       -1.06296        1.78777
Pd        -2.13313       -0.42223       -0.17467
O         -4.30135       -0.60321       -0.44992
C         -4.31829        0.64774       -0.51789
O         -3.20995        1.27909       -0.38247
C         -5.56850        1.41953       -0.77804
H         -5.57076        2.34740       -0.19112
H         -5.59621        1.69657       -1.84313
H         -6.44758        0.80614       -0.54741
F          5.16715       -1.30965       -1.01170
F          5.01577       -0.15497        0.80090
F          4.90676        0.83092       -1.10707
