38
Benzoisoxazole_H9_Int2_Sub29.log	Energy: -691436.4649111
C         -0.11151       -0.63855       -0.23508
C          1.08654       -0.12874        0.26468
C         -0.11041       -1.83073       -1.00297
C          2.27847       -0.80918       -0.03142
H          1.09841        0.77706        0.87481
C          1.06022       -2.51390       -1.30783
H         -1.06729       -2.23228       -1.34582
C          2.24342       -1.97179       -0.80682
C          3.68498       -0.65094        0.24288
H          1.05909       -3.43052       -1.89953
O          3.48968       -2.44305       -0.96882
C          4.38218        0.41787        1.02808
N          4.36825       -1.61229       -0.31335
O         -1.03130        2.10033        0.10943
C         -0.44385        2.57139       -0.86487
O         -0.09909        1.86450       -1.90555
C         -0.05014        4.00566       -0.92406
H         -0.54957        4.56714       -0.12796
H          1.04172        4.07299       -0.79752
H         -0.29174        4.42141       -1.91150
H         -0.27639        0.91437       -1.70259
Pd        -1.83897        0.19307        0.17198
O         -4.01139        0.35314        0.64002
C         -4.02800       -0.89387        0.53984
O         -2.94345       -1.50845        0.24102
C         -5.26472       -1.69768        0.78549
H         -5.20977       -2.13014        1.79632
H         -6.15288       -1.05808        0.71970
H         -5.32597       -2.52904        0.07081
H          5.45420        0.16781        0.97937
C          4.17885        1.79074        0.38692
H          4.74393        2.55960        0.93563
H          4.51893        1.79626       -0.65910
H          3.11724        2.08516        0.39842
C          3.94624        0.39957        2.49276
H          4.12542       -0.58540        2.94775
H          4.50642        1.15045        3.07069
H          2.87395        0.62713        2.59826
