32
Benzoisoxazole_H9_Int2_Sub14.log	Energy: -642133.2878681
C         -0.56977       -0.28253        0.03170
C         -1.46294        0.03494       -0.99044
C         -1.01017       -0.98086        1.20027
C         -2.80681       -0.34523       -0.85435
H         -1.12527        0.56950       -1.88229
C         -2.34935       -1.34720        1.33602
C         -0.03076       -1.32792        2.28421
C         -3.21801       -1.02116        0.29713
C         -4.02509       -0.24283       -1.60087
H         -2.70578       -1.87630        2.22163
O         -4.53422       -1.27794        0.22306
H         -4.20294        0.20741       -2.57747
N         -5.02032       -0.78831       -0.96491
O          1.02231        2.16717       -0.33675
C          0.25642        2.88702        0.30360
O         -0.70619        2.43333        1.05588
C          0.36769        4.37230        0.26226
H          1.24982        4.66907       -0.31383
H         -0.54285        4.78858       -0.19389
H          0.42485        4.76370        1.28792
H         -0.77303        1.45345        0.92491
Pd         1.33627        0.12764       -0.21932
O          3.51852       -0.21245       -0.49384
C          3.25447       -1.42799       -0.35801
O          2.04051       -1.78213       -0.14838
C          4.30389       -2.48925       -0.45227
H          5.30356       -2.04026       -0.42335
H          4.17910       -3.21465        0.36324
H          4.17596       -3.03398       -1.39993
H         -0.52153       -1.85062        3.11660
H          0.45660       -0.42392        2.68384
H          0.77061       -1.96513        1.88030
