40
Carbazole_H8_Int2_Sub25.log	Energy: -902723.3029186
C         -0.82776       -0.59683        0.01811
C         -0.57452       -1.87885        0.54547
C          0.22848        0.21427       -0.41150
C          0.72713       -2.34999        0.68438
H         -1.41735       -2.51200        0.83194
C          1.52661       -0.26818       -0.25879
H          0.04087        1.19176       -0.85516
C          1.79412       -1.53617        0.29317
H          0.91239       -3.34348        1.09997
N          2.74768        0.35411       -0.56507
C          3.23244       -1.68691        0.33383
C          3.80078       -0.49865       -0.18420
C          2.81821        1.72065       -0.88239
C          4.06076       -2.72439        0.76840
C          5.18419       -0.33641       -0.26792
C          5.43911       -2.56633        0.68948
H          3.62552       -3.64428        1.16512
C          5.98747       -1.38357        0.17789
H          5.63390        0.56924       -0.66826
H          6.10007       -3.36776        1.02606
H          7.07283       -1.27410        0.12039
O         -2.08947        1.97032        0.21629
C         -1.48318        2.32884        1.22681
O         -1.12925        1.50777        2.17717
C         -1.05453        3.73888        1.42353
H         -1.64606        4.40687        0.78872
H         -1.12439        4.02296        2.48103
H          0.00516        3.80054        1.12630
H         -1.31284        0.58964        1.86905
Pd        -2.68171        0.01216       -0.11669
O         -4.89470       -0.07779       -0.38594
C         -4.73263       -1.31165       -0.51376
O         -3.55151       -1.79882       -0.41198
C         -5.86811       -2.23842       -0.81138
H         -5.85838       -2.47448       -1.88656
H         -5.74361       -3.18111       -0.26232
H         -6.82322       -1.76182       -0.56058
F          4.05431        2.08388       -1.18393
F          2.40502        2.49708        0.13475
F          2.03268        2.01573       -1.91788
