40
Carbazole_H7_Int2_Sub22.log	Energy: -715987.3823992
C         -0.34774       -0.35717        0.07623
C         -0.15985       -1.55925        0.79384
C          0.75616        0.32690       -0.43820
C          1.10237       -2.10002        1.03968
H         -1.03970       -2.10177        1.15125
C          2.03841       -0.19052       -0.21821
H          0.62882        1.25176       -1.00734
C          2.19308       -1.38871        0.52005
C          1.30239       -3.37445        1.80183
C          3.36957        0.23910       -0.58883
N          3.53776       -1.68385        0.60660
C          4.26845       -0.72103       -0.05382
C          3.87434        1.32511       -1.31081
H          3.92749       -2.49001        1.07083
C          5.64918       -0.60915       -0.22894
C          5.24857        1.44041       -1.48695
H          3.19584        2.07023       -1.73327
C          6.12330        0.48162       -0.95008
H          6.33521       -1.35194        0.18439
H          5.65550        2.28300       -2.05011
H          7.19954        0.59260       -1.10237
O         -1.68308        2.23152        0.05942
C         -1.12022        2.66588        1.06463
O         -0.55732        1.90604        1.96189
C         -1.02377        4.12766        1.33523
H         -1.63913        4.68506        0.62185
H         -1.33840        4.33462        2.36753
H          0.02908        4.43570        1.24668
H         -0.54595        0.97721        1.61638
Pd        -2.18284        0.24389       -0.25400
O         -4.37015        0.11615       -0.72742
C         -4.18563       -1.11994       -0.77455
O         -3.01799       -1.59028       -0.53866
C         -5.28331       -2.07434       -1.12866
H         -5.17014       -2.36725       -2.18376
H         -5.20651       -2.98528       -0.52034
H         -6.26093       -1.59585       -0.99545
H          1.81481       -4.13480        1.18806
H          0.34174       -3.79968        2.12180
H          1.91552       -3.21545        2.70546
