40
Carbazole_H7_Int2_Sub25.log	Energy: -902722.8545004
C         -0.87590       -0.22264        0.01937
C         -0.41763       -1.41827        0.60852
C          0.05373        0.70514       -0.45744
C          0.93914       -1.69523        0.76279
H         -1.14798       -2.16127        0.93809
C          1.41981        0.43592       -0.33135
H         -0.27351        1.63204       -0.93610
C          1.85508       -0.75342        0.29181
H          1.25803       -2.62531        1.22981
C          2.60058        1.16711       -0.73515
N          3.26113       -0.74952        0.31509
C          3.72241        0.40379       -0.34175
C          2.78055        2.38367       -1.39802
C          4.05994       -1.86967        0.61639
C          5.02219        0.83290       -0.61550
C          4.07206        2.81798       -1.66965
H          1.91556        2.97619       -1.70464
C          5.17528        2.04494       -1.28344
H          5.89313        0.25022       -0.32196
H          4.23117        3.76425       -2.19092
H          6.18436        2.39750       -1.50873
O         -2.66414        2.05966        0.23290
C         -2.17443        2.51749        1.26575
O         -1.49934        1.80068        2.12096
C         -2.30527        3.95690        1.62339
H         -2.98696        4.45786        0.92879
H         -2.66532        4.04929        2.65756
H         -1.31027        4.42519        1.58139
H         -1.35823        0.90452        1.72861
Pd        -2.80483        0.03706       -0.19513
O         -4.94164       -0.46515       -0.59356
C         -4.53837       -1.64098       -0.73627
O         -3.29300       -1.89706       -0.57714
C         -5.45774       -2.75800       -1.11640
H         -5.34436       -2.95773       -2.19300
H         -5.18518       -3.67496       -0.57735
H         -6.49868       -2.47910       -0.91394
F          3.51399       -2.58845        1.59143
F          5.27061       -1.49082        1.01453
F          4.22419       -2.68158       -0.43163
