40
Carbazole_H7_Int2_Sub14.log	Energy: -715986.4520850
C         -0.32120       -0.37573        0.37887
C         -0.14700       -1.10244        1.57815
C          0.78788       -0.02624       -0.41174
C          1.10975       -1.47254        2.04247
H         -1.03052       -1.39272        2.15250
C          2.06787       -0.39643        0.04928
C          0.64475        0.71487       -1.70792
C          2.21096       -1.10964        1.26749
H          1.22445       -2.03283        2.97302
C          3.40901       -0.20703       -0.47143
N          3.54835       -1.34440        1.49031
C          4.29285       -0.81557        0.46192
C          3.95067        0.40471       -1.61044
H          3.92429       -1.84355        2.28233
C          5.67619       -0.82257        0.27744
C          5.32868        0.39991       -1.79753
H          3.30446        0.88071       -2.34814
C          6.18074       -0.20762       -0.86294
H          6.34057       -1.29563        1.00408
H          5.75442        0.87431       -2.68429
H          7.26000       -0.19886       -1.03272
O         -1.89609        2.08371       -0.10563
C         -1.20492        2.77554        0.64121
O         -0.32609        2.29509        1.47307
C         -1.31664        4.26249        0.64463
H         -2.14325        4.58047        0.00133
H         -1.46637        4.61787        1.67385
H         -0.36997        4.69347        0.28585
H         -0.24934        1.31447        1.32814
Pd        -2.17619        0.02959       -0.13545
O         -4.32042       -0.35243       -0.65984
C         -4.02865       -1.56297       -0.53710
O         -2.83603       -1.89254       -0.20859
C         -5.02640       -2.65067       -0.78829
H         -4.81559       -3.10640       -1.76781
H         -4.92703       -3.43804       -0.02907
H         -6.04325       -2.24054       -0.79451
H         -0.41007        0.89910       -1.94928
H          1.08374        0.13545       -2.53563
H          1.17179        1.68339       -1.67776
