42
Cyclopentadiene_H5_deriv1_Int2_Sub19.log	Energy: -924039.0826071
C         -0.34132       -0.26915        0.52771
C          0.06221       -1.22135        1.62196
C          0.81672        0.14678       -0.05096
H         -0.34697       -0.93078        2.60692
H         -0.36372       -2.21968        1.41107
C          1.55640       -1.22429        1.59612
Cl         0.95139        1.22731       -1.39975
C          2.00641       -0.42265        0.60289
H          2.17539       -1.79065        2.29278
C          3.40972       -0.14491        0.16491
O         -2.16230        1.94882       -0.28470
C         -1.53651        2.79966        0.34867
O         -0.63171        2.51934        1.23852
C         -1.76068        4.25333        0.11292
H         -0.92285        4.63030       -0.49422
H         -2.70024        4.40918       -0.42722
H         -1.75310        4.79896        1.06553
H         -0.43717        1.54020        1.19037
Pd        -2.19934       -0.09235       -0.03494
O         -4.25245       -0.75243       -0.55745
C         -3.85141       -1.90609       -0.28506
O         -2.64411       -2.06545        0.11496
C         -4.72380       -3.11053       -0.43872
H         -4.46774       -3.61384       -1.38371
H         -4.53972       -3.82049        0.37840
H         -5.77874       -2.81295       -0.46927
H          3.46461        0.93326       -0.08049
C          3.75064       -0.91303       -1.12268
H          3.01399       -0.67512       -1.90531
H          3.65291       -1.99362       -0.91489
C          5.16268       -0.60175       -1.60424
H          5.39164       -1.18942       -2.50799
H          5.21483        0.46059       -1.90443
C          6.19824       -0.86869       -0.51753
H          7.20610       -0.59432       -0.86915
H          6.22785       -1.95298       -0.30511
C          5.86027       -0.11871        0.76656
H          5.94324        0.96833        0.58515
H          6.59179       -0.35687        1.55565
C          4.44848       -0.43724        1.24604
H          4.39218       -1.50703        1.51716
H          4.20839        0.13018        2.15970
