26
Cyclopentadiene_H5_deriv1_Int2_Sub18.log	Energy: -1065207.7996408
C          0.49961       -0.60614        0.35820
C          0.66143       -1.78643        1.28184
C          1.69811       -0.42882       -0.25889
H          0.39635       -1.54053        2.32642
H         -0.04568       -2.58090        0.97974
C          2.08690       -2.21126        1.14244
Cl         2.09959        0.72049       -1.47415
C          2.67597       -1.40696        0.23513
H          2.56426       -3.02272        1.69015
Cl         4.29923       -1.45085       -0.30870
O         -0.65740        2.09636       -0.14184
C          0.19430        2.68334        0.52658
O          0.98287        2.08892        1.37305
C          0.40661        4.15022        0.38903
H          1.30795        4.30186       -0.22542
H         -0.45310        4.61282       -0.10660
H          0.59304        4.60282        1.37157
H          0.88357        1.10584        1.25322
Pd        -1.26438        0.13692       -0.01761
O         -3.44293        0.13627       -0.39683
C         -3.38000       -1.10399       -0.24091
O         -2.24646       -1.63413        0.03984
C         -4.57202       -1.99070       -0.39978
H         -4.53496       -2.45654       -1.39654
H         -4.54953       -2.79581        0.34645
H         -5.49451       -1.40391       -0.31602
