26
Cyclopentadiene_H5_deriv1_Int2_Sub10.log	Energy: -1065208.7928753
C         -0.76697       -0.12580        0.01404
C         -1.54454       -1.24330       -0.63574
C         -1.65909        0.56416        0.77761
H         -1.47696       -1.23913       -1.73762
H         -1.14392       -2.21970       -0.30992
C         -2.94721       -1.03147       -0.16618
Cl        -1.31346        1.90579        1.80953
C         -3.01373        0.03028        0.66420
Cl        -4.24614       -2.02476       -0.67502
H         -3.89293        0.43032        1.16661
O          1.40862        1.90818       -0.17994
C          0.71199        2.70716       -0.80779
O         -0.41102        2.39024       -1.38009
C          1.10567        4.13747       -0.93484
H          0.49122        4.71890       -0.22969
H          2.16394        4.26314       -0.68374
H          0.88886        4.50420       -1.94655
H         -0.66201        1.47004       -1.08431
Pd         1.18541       -0.12717       -0.01140
O          3.22703       -0.97599        0.04896
C          2.66482       -2.09036        0.14084
O          1.38319       -2.13801        0.13009
C          3.43302       -3.36292        0.29225
H          3.42678       -3.65487        1.35368
H          2.95180       -4.16799       -0.27859
H          4.47102       -3.21948       -0.03070
