26
Cyclopentadiene_H5_Int2_Sub10.log	Energy: -776886.1878751
C         -0.57590       -1.06510       -0.26286
C         -0.30515       -2.25206       -1.15104
C         -1.71343       -1.36125        0.42484
H         -0.21343       -1.97464       -2.21715
H          0.67131       -2.69529       -0.88120
C         -1.44188       -3.19041       -0.90026
Cl        -2.46679       -0.39441        1.64427
C         -2.26094       -2.65713        0.02937
H         -1.57433       -4.14708       -1.40753
H         -3.17532       -3.08461        0.44175
O         -0.55469        1.89728        0.07137
C         -1.60155        2.05521       -0.55805
O         -2.13873        1.13990       -1.30834
C         -2.36120        3.33371       -0.47920
H         -3.21758        3.17441        0.19464
H         -1.72496        4.12847       -0.07623
H         -2.75919        3.60252       -1.46631
H         -1.65670        0.28041       -1.14559
Pd         0.76696        0.32508        0.00041
O          2.78840        1.19204        0.27500
C          3.20696        0.01732        0.17089
O          2.36284       -0.92579       -0.03305
C          4.65502       -0.32842        0.30593
H          4.83213       -0.71723        1.32051
H          4.92570       -1.11866       -0.40671
H          5.27341        0.56439        0.15479
