38
Cyclopentadiene_H5_Int2_Sub28.log	Energy: -587165.2501259
C         -0.29235       -0.39663       -0.26090
C         -0.63292       -1.39688       -1.33060
C         -1.43761       -0.09340        0.41063
H         -0.33042       -1.05862       -2.33860
H         -0.06451       -2.32841       -1.15369
C         -2.11010       -1.58044       -1.19520
H         -1.51148        0.56386        1.28094
C         -2.57786       -0.81956       -0.17690
H         -2.70049       -2.22973       -1.84183
C         -3.99686       -0.67312        0.32266
O          1.16798        2.11182        0.38396
C          0.37407        2.86604       -0.17927
O         -0.64376        2.45973       -0.87981
C          0.52287        4.34758       -0.09245
H         -0.36670        4.77462        0.39335
H          1.42583        4.60494        0.47030
H          0.57037        4.76653       -1.10803
H         -0.73638        1.46766       -0.77235
Pd         1.54427        0.09041        0.11656
O          3.76819       -0.25168        0.41592
C          3.50912       -1.44434        0.15081
O          2.30214       -1.78259       -0.12346
C          4.55844       -2.51201        0.16484
H          4.43856       -3.11655        1.07680
H          4.42820       -3.18215       -0.69561
H          5.55820       -2.06196        0.16035
C         -4.95165       -1.55282       -0.48238
H         -5.98202       -1.43981       -0.11096
H         -4.94527       -1.27858       -1.54836
H         -4.67811       -2.61585       -0.40155
C         -4.05566       -1.08465        1.80041
H         -3.39260       -0.46386        2.42203
H         -5.08017       -0.97562        2.19090
H         -3.74865       -2.13390        1.92731
C         -4.42215        0.79559        0.18158
H         -5.44716        0.94053        0.55888
H         -3.75817        1.46605        0.74877
H         -4.39604        1.11146       -0.87272
