42
Cyclopentadiene_H5_Int2_Sub3.log	Energy: -635711.2624069
C          0.12044       -0.70425       -1.20817
C         -1.30044       -0.21330       -1.40910
C          0.36982       -1.69309       -2.11234
C         -2.21960       -0.21080       -0.16855
H         -1.21543        0.83405       -1.76585
C         -1.79533       -1.07892       -2.53455
H          1.32261       -2.21012       -2.25158
C         -0.82336       -1.92943       -2.92339
H         -2.80015       -1.02302       -2.95362
H         -0.89577       -2.67379       -3.71874
O          2.14012       -1.42736        0.86203
C          1.56525       -2.46617        1.19051
O          0.41668       -2.84303        0.71226
C          2.16525       -3.39698        2.18961
H          2.33337       -4.37685        1.71940
H          3.10716       -2.98887        2.56974
H          1.45304       -3.55030        3.01337
H          0.15713       -2.22043       -0.03143
Pd         1.42091        0.24544       -0.11954
O          2.55735        2.02077        0.65567
C          1.82395        2.69588       -0.09914
O          0.93807        2.10220       -0.81046
C          1.95351        4.18219       -0.21751
H          2.38585        4.42674       -1.19949
H          0.96035        4.64962       -0.16998
H          2.60376        4.57241        0.57415
H         -2.29867       -1.25858        0.18318
C         -3.63191        0.26802       -0.51983
H         -4.06790       -0.36333       -1.30863
H         -3.55941        1.28845       -0.94013
C         -4.55995        0.28397        0.69001
H         -5.55450        0.65704        0.39597
H         -4.71049       -0.75275        1.04242
C         -3.98793        1.11984        1.82751
H         -4.65258        1.08536        2.70614
H         -3.94070        2.17813        1.51271
C         -2.58782        0.64426        2.19294
H         -2.65065       -0.37685        2.61199
H         -2.15697        1.27740        2.98545
C         -1.66389        0.63112        0.98120
H         -1.50004        1.66188        0.61912
H         -0.66776        0.25905        1.27313
