35
Cyclopentadiene_H5_deriv1_Int2_Sub21.log	Energy: -850839.0812369
C         -0.35349       -0.38868       -0.42951
C         -0.71457       -1.42847       -1.45653
C         -1.51303       -0.07425        0.20749
H         -0.40083       -1.14126       -2.47687
H         -0.16869       -2.36415       -1.23503
C         -2.19474       -1.59168       -1.33255
Cl        -1.68181        1.04876        1.51718
C         -2.66982       -0.79944       -0.34370
H         -2.78837       -2.25294       -1.96479
C         -4.07129       -0.66007        0.17470
O          1.25799        2.04959        0.16871
C          0.50356        2.79682       -0.45513
O         -0.41887        2.37837       -1.26946
C          0.58022        4.27577       -0.29468
H         -0.25245        4.58868        0.35452
H          1.53010        4.55763        0.17129
H          0.44962        4.77134       -1.26552
H         -0.50044        1.38746       -1.16845
Pd         1.50434        0.01460        0.00207
O          3.64540       -0.39449        0.41541
C          3.35876       -1.59646        0.21766
O          2.15436       -1.90407       -0.09514
C          4.36682       -2.69097        0.36300
H          4.22628       -3.17276        1.34281
H          4.21285       -3.45523       -0.41019
H          5.38222       -2.28025        0.31152
H         -4.23306        0.41711        0.36288
C         -5.11205       -1.13655       -0.82930
H         -6.12866       -0.96338       -0.44517
H         -5.01462       -0.61328       -1.79224
H         -5.01282       -2.21731       -1.01956
C         -4.22036       -1.38534        1.51566
H         -3.48670       -1.02514        2.25088
H         -5.22692       -1.22827        1.93377
H         -4.06736       -2.46811        1.38416
