42
Cyclopentadiene_H5_deriv1_Int2_Sub3.log	Energy: -924035.6113565
C          0.28342       -0.70823       -0.81572
C         -1.16578       -0.81179       -1.25466
C          0.95212       -1.71699       -1.43698
C         -2.22465       -0.86995       -0.13220
H         -1.37042        0.09448       -1.86143
C         -1.17697       -2.01387       -2.15869
Cl         2.64896       -2.03390       -1.34564
C          0.06133       -2.53557       -2.25247
H         -2.06981       -2.40386       -2.64760
H          0.38147       -3.40444       -2.82814
O          2.16595       -0.11992        1.42718
C          1.95225       -1.20295        1.97354
O          0.98467       -2.00373        1.64025
C          2.82984       -1.69598        3.07205
H          3.48935       -2.47391        2.65688
H          3.43838       -0.87640        3.46802
H          2.22477       -2.16030        3.86180
H          0.56999       -1.66227        0.79421
Pd         1.02651        0.88406        0.03749
O          1.37343        3.04909        0.37658
C          0.56488        3.23505       -0.56056
O          0.03308        2.21906       -1.13304
C          0.21301        4.60287       -1.05114
H          0.71849        4.77665       -2.01326
H         -0.86878        4.67242       -1.22832
H          0.53949        5.36136       -0.32997
H         -2.02870       -1.78793        0.45672
C         -3.64119       -0.97906       -0.70564
H         -3.73112       -1.86803       -1.34817
H         -3.82192       -0.10320       -1.35623
C         -4.70819       -1.02909        0.38280
H         -5.70922       -1.08210       -0.07518
H         -4.58523       -1.95992        0.96582
C         -4.61002        0.16557        1.32228
H         -5.36221        0.09026        2.12433
H         -4.84241        1.08908        0.76157
C         -3.20839        0.27540        1.90804
H         -3.01852       -0.59767        2.55894
H         -3.12533        1.16511        2.55294
C         -2.14523        0.32637        0.81748
H         -2.25208        1.25443        0.22793
H         -1.14331        0.37929        1.27411
