38
Cyclopentadiene_H5_Int2_Sub4.log	Energy: -587161.1579101
C          0.73137       -0.15053       -0.88147
C          1.35983       -1.47171       -0.47860
C          1.38332        0.31846       -1.98443
C          1.73543       -1.71859        1.00892
H          0.58547       -2.22349       -0.74089
C          2.48445       -1.62065       -1.46503
H          1.10569        1.19845       -2.57048
C          2.48013       -0.58527       -2.32903
H          3.18633       -2.45472       -1.47068
H          3.16524       -0.43763       -3.16603
O         -0.43527        2.38842        0.24422
C          0.64982        2.95049        0.38989
O          1.79540        2.41608        0.08614
C          0.73361        4.32978        0.95187
H          1.29750        4.97556        0.26399
H         -0.27068        4.72990        1.12391
H          1.29375        4.29523        1.89823
H          1.65143        1.51631       -0.33508
Pd        -0.98852        0.44282       -0.20271
O         -3.18909        0.21363        0.33503
C         -3.04634       -0.96973       -0.03774
O         -1.90155       -1.36539       -0.46238
C         -4.17246       -1.95596       -0.01943
H         -5.04783       -1.52561        0.48071
H         -4.43260       -2.22593       -1.05379
H         -3.85247       -2.87661        0.48841
C          2.77802       -0.69900        1.47008
H          3.10911       -0.92145        2.49684
H          3.66488       -0.70811        0.81777
H          2.36853        0.32179        1.47181
C          0.49769       -1.62406        1.90185
H         -0.29441       -2.30927        1.56475
H          0.75970       -1.87670        2.94164
H          0.07278       -0.60757        1.89922
C          2.31350       -3.13128        1.14384
H          2.51388       -3.36009        2.20220
H          1.60775       -3.88752        0.76518
H          3.26180       -3.24603        0.59858
