29
Cyclopentadiene_H5_deriv1_Int2_Sub17.log	Energy: -988282.7228208
C         -0.16978       -0.44861       -0.40006
C         -0.47606       -1.57716       -1.34865
C         -1.34316       -0.12437        0.20827
H         -0.17147       -1.36005       -2.38863
H          0.10645       -2.47124       -1.05805
C         -1.94511       -1.80173       -1.22645
Cl        -1.57018        1.05255        1.44814
C         -2.44214       -0.94659       -0.31006
H         -2.52149       -2.53095       -1.79573
C         -3.87190       -0.83779        0.10909
O          1.34964        2.06268        0.15528
C          0.59564        2.77410       -0.50978
O         -0.26429        2.30882       -1.36765
C          0.59497        4.25433       -0.35477
H         -0.27984        4.52697        0.25627
H          1.50850        4.58282        0.15149
H          0.48260        4.74037       -1.33258
H         -0.30570        1.32067       -1.26258
Pd         1.67305        0.03900        0.01220
O          3.82078       -0.27341        0.42440
C          3.58717       -1.49061        0.25033
O          2.39482       -1.85176       -0.05602
C          4.63909       -2.53821        0.41579
H          4.51979       -3.00455        1.40585
H          4.51609       -3.32416       -0.34097
H          5.63633       -2.08659        0.35384
F         -4.02491       -1.07556        1.41384
F         -4.63554       -1.71185       -0.55220
F         -4.35938        0.38393       -0.13041
