30
Cyclopentadiene_H5_deriv1_Int2_Sub16.log	Energy: -848706.1624704
C         -0.72087       -0.15559       -0.07524
C         -1.44732       -1.27102       -0.78921
C         -1.65110        0.44276        0.71910
H         -1.37767       -1.21323       -1.88898
H         -1.01648       -2.24664       -0.50396
C         -2.86519       -1.14451       -0.32937
Cl        -1.36540        1.73458        1.83258
C         -2.98458       -0.12733        0.56432
O         -3.78386       -1.96720       -0.83030
H         -3.87163        0.22949        1.08312
O          1.39953        1.93702       -0.13227
C          0.67834        2.72893       -0.74262
O         -0.43228        2.39342       -1.32358
C          1.03177        4.17377       -0.83225
H          0.40125        4.72030       -0.11362
H          2.08605        4.32306       -0.57693
H          0.80565        4.55961       -1.83479
H         -0.65658        1.45187       -1.04595
Pd         1.23328       -0.10791       -0.02080
O          3.29983       -0.91211        0.09361
C          2.75953       -2.03977        0.13546
O          1.48150       -2.11884        0.07747
C          3.55263       -3.29919        0.28025
H          3.50148       -3.63101        1.32864
H          3.12056       -4.09381       -0.34242
H          4.60110       -3.11981        0.01412
C         -5.09927       -1.79154       -0.36935
H         -5.16030       -1.94143        0.72249
H         -5.47193       -0.78042       -0.60946
H         -5.72198       -2.53951       -0.87518
