29
Cyclopentadiene_H5_Int2_Sub25.log	Energy: -699961.3273953
C          0.32916       -0.39426        0.23258
C          0.67287       -1.48206        1.21506
C          1.47533       -0.01825       -0.40139
H          0.36528       -1.23785        2.24818
H          0.11522       -2.40239        0.96122
C          2.14902       -1.65178        1.08150
H          1.57136        0.71056       -1.20878
C          2.59360       -0.79488        0.13807
H          2.76006       -2.34574        1.65863
C          4.00471       -0.62558       -0.30985
O         -1.16829        2.08372       -0.42806
C         -0.44493        2.85752        0.20064
O          0.49690        2.46991        1.01107
C         -0.59098        4.33449        0.06906
H          0.32345        4.74733       -0.38245
H         -1.46115        4.57506       -0.54984
H         -0.68977        4.78172        1.06840
H          0.61307        1.48510        0.91699
Pd        -1.51964        0.07326       -0.12422
O         -3.70670       -0.25052       -0.40803
C         -3.46708       -1.44826       -0.14046
O         -2.26327       -1.79532        0.13635
C         -4.52985       -2.49963       -0.15877
H         -4.44601       -3.07111       -1.09589
H         -4.38465       -3.20153        0.67315
H         -5.52243       -2.03630       -0.11118
F          4.83784       -1.44903        0.32867
F          4.43301        0.62731       -0.09669
F          4.13346       -0.85618       -1.62238
