27
Furan_H7_Int2_Sub6.log	Energy: -535749.3787332
C          0.73219       -1.08775       -0.13679
C          1.81042       -1.36253        0.67516
C          0.72057       -2.14260       -1.12243
O          2.44703       -2.48074        0.24431
C          2.37364       -0.69530        1.87255
C          1.78133       -2.94391       -0.83700
H         -0.00247       -2.27771       -1.92359
H          2.17978       -3.84755       -1.29170
O          0.64141        1.84721        0.25325
C          1.69406        2.04581       -0.35716
O          2.30312        1.13960       -1.06119
C          2.36687        3.37559       -0.32216
H          2.53852        3.72376       -1.35072
H          1.75430        4.09521        0.23017
H          3.35288        3.26884        0.15377
H          1.83856        0.26349       -0.91859
Pd        -0.66944        0.26636        0.06711
O         -2.70332        1.12293        0.20268
C         -3.10891       -0.05089        0.03581
O         -2.25061       -0.98750       -0.12045
C         -4.56325       -0.39853        0.04302
H         -4.77207       -1.17648       -0.70309
H         -4.82443       -0.80472        1.03230
H         -5.16811        0.49684       -0.14403
H          2.38316       -1.37715        2.73761
H          1.75979        0.17647        2.13272
H          3.41202       -0.36506        1.70344
