27
Furan_H6_Int2_Sub6.log	Energy: -535748.8632832
C         -0.81380        0.97083       -0.29874
C         -1.04951        2.13094        0.40890
O         -1.79161        0.81167       -1.24196
C         -2.24568        2.69690       -0.15215
C         -0.21759        2.69187        1.51247
C         -2.64117        1.85472       -1.14490
H         -2.73859        3.61890        0.15124
H         -3.47572        1.86427       -1.84193
O         -0.80657       -1.87061       -0.24686
C         -1.85787       -1.91917        0.39427
O         -2.30597       -0.94900        1.13649
C         -2.72704       -3.12873        0.35375
H         -3.62415       -2.89206       -0.23871
H         -2.19049       -3.96371       -0.10823
H         -3.06040       -3.38605        1.36808
H         -1.73648       -0.14263        0.99519
Pd         0.59240       -0.36535       -0.19031
O          2.57958       -1.29312       -0.02950
C          3.03287       -0.12447       -0.01630
O          2.21211        0.85612       -0.07464
C          4.49890        0.16081        0.03858
H          4.84260        0.44260       -0.96845
H          4.69396        1.01059        0.70622
H          5.04701       -0.72993        0.36771
H          0.09992        3.71995        1.27802
H          0.68936        2.08953        1.65760
H         -0.77233        2.73201        2.46391
