27
Furan_H6_Int2_Sub14.log	Energy: -535748.7475830
C         -0.89319       -0.67289        0.20085
C         -1.49649       -1.62389       -0.58672
O         -1.76783       -0.29247        1.17356
C         -2.81468       -1.84400       -0.05538
H         -1.03619       -2.12666       -1.43530
C         -2.90983       -1.00218        1.01347
C         -3.84624       -2.79220       -0.56469
H         -3.70373       -0.80904        1.73124
O         -0.02889        2.02544        0.31234
C         -1.02069        2.43607       -0.29162
O         -1.74673        1.70751       -1.08999
C         -1.48619        3.84308       -0.13756
H         -2.40664        3.83969        0.46630
H         -0.71902        4.44102        0.36486
H         -1.73736        4.26626       -1.11937
H         -1.44909        0.76026       -1.03695
Pd         0.84925        0.17384        0.13040
O          3.02029        0.46310       -0.02139
C          3.09611       -0.78569       -0.11185
O          2.01652       -1.47148       -0.09580
C          4.40685       -1.49746       -0.20772
H          4.67044       -1.88676        0.78769
H          4.32550       -2.35332       -0.89059
H          5.19086       -0.80521       -0.53721
H         -4.76560       -2.74357        0.03602
H         -3.48092       -3.83105       -0.53767
H         -4.11445       -2.56991       -1.60979
