40
Furan_H7_Int2_Sub11.log	Energy: -658247.4796015
C         -0.50739        0.56885       -1.28555
C         -0.76436        1.37093       -2.36900
C         -1.41355       -0.55748       -1.42730
O         -1.73455        0.84240       -3.14942
H         -0.33487        2.30849       -2.71444
C         -2.11469       -0.31722       -2.57322
C         -1.53827       -1.75053       -0.53039
H         -2.89957       -0.87237       -3.08231
O         -0.23441        1.88135        1.37859
C         -1.38547        2.32005        1.34607
O         -2.17591        2.21794        0.32205
C         -1.97725        3.00156        2.53326
H         -2.71712        2.32516        2.98858
H         -1.19587        3.23306        3.26442
H         -2.50963        3.90993        2.22122
H         -1.70420        1.72642       -0.41280
Pd         0.91014        0.80259        0.04996
O          2.89385        0.61331        1.00782
C          3.21971       -0.04999       -0.00391
O          2.35417       -0.23232       -0.93021
C          4.58148       -0.64476       -0.16706
H          4.49262       -1.73828       -0.24415
H          5.02896       -0.28699       -1.10538
H          5.21875       -0.37825        0.68401
H         -2.39763       -2.34629       -0.89073
C         -1.83104       -1.35428        0.92164
H         -2.75308       -0.75045        0.96115
H         -1.00990       -0.70531        1.27720
C         -1.93436       -2.56708        1.83778
H         -2.11488       -2.24336        2.87592
H         -2.81089       -3.17373        1.54506
C         -0.67831       -3.42754        1.75713
H         -0.77465       -4.31218        2.40738
H          0.18061       -2.84781        2.14157
C         -0.39351       -3.84821        0.31968
H         -1.20576       -4.51212       -0.02950
H          0.53340       -4.44221        0.26829
C         -0.29195       -2.64313       -0.60729
H          0.59379       -2.03845       -0.34540
H         -0.13825       -2.96296       -1.65015
