33
Furan_H7_Int2_Sub21.log	Energy: -585048.5236828
C         -0.61312        0.04258       -0.41582
C         -1.33856        0.77111       -1.32356
C         -1.58646       -0.79063        0.24803
O         -2.65364        0.45298       -1.25679
H         -1.06755        1.51282       -2.07136
C         -2.80181       -0.49882       -0.30230
H         -1.38499       -1.52700        1.02170
C         -4.19131       -0.98774       -0.05910
O          1.58618        1.98408       -0.21758
C          0.92827        2.84017        0.37663
O         -0.23693        2.61551        0.90941
C          1.43118        4.23511        0.52777
H          1.42700        4.50899        1.59258
H          2.44090        4.31989        0.11373
H          0.74662        4.92472        0.01224
H         -0.53934        1.70784        0.62638
Pd         1.32152       -0.06012       -0.16028
O          3.32019       -0.95529        0.14444
C          2.72609       -2.05839        0.13977
O          1.45366       -2.07714        0.00218
C          3.45851       -3.35660        0.25960
H          2.88059       -4.06462        0.86808
H          3.57118       -3.79257       -0.74494
H          4.45407       -3.19197        0.68886
H         -4.56085       -1.38760       -1.02219
C         -4.20312       -2.11663        0.96237
H         -5.22495       -2.49879        1.10276
H         -3.56552       -2.95512        0.64557
H         -3.83967       -1.76459        1.94099
C         -5.11512        0.16139        0.34926
H         -5.09347        0.96923       -0.39605
H         -6.15394       -0.18939        0.44742
H         -4.80291        0.58309        1.31805
