36
Imidazole_H6_deriv1_Int2_Sub2.log	Energy: -895642.0181052
C          0.34201       -0.26983       -0.13797
C          1.03148       -1.37410       -0.62555
N          1.37200        0.57253        0.24222
Cl         0.34815       -2.79663       -1.32170
N          2.37148       -1.22602       -0.53189
C          2.55983       -0.02780       -0.01095
H          1.21784        1.52160        0.56298
C          3.91148        0.57195        0.28370
O         -2.37450       -1.38476       -0.03983
C         -2.07997       -2.27737        0.75954
O         -1.05872       -2.21762        1.56176
C         -2.87967       -3.52822        0.84545
H         -2.98599       -3.84329        1.89149
H         -3.85509       -3.39045        0.36778
H         -2.31784       -4.31224        0.31375
H         -0.48081       -1.45808        1.27929
Pd        -1.47049        0.45177       -0.11936
O         -3.03816        2.02083       -0.10043
C         -2.09366        2.83844       -0.10574
O         -0.88891        2.38896       -0.09966
C         -2.31075        4.31548       -0.15033
H         -2.15955        4.66318       -1.18386
H         -3.33409        4.55743        0.16001
H         -1.57665        4.82807        0.48533
C          4.73403        0.55737       -1.01028
H          5.75434        0.92653       -0.82128
H          4.79433       -0.46454       -1.41013
H          4.27200        1.19508       -1.77942
C          3.76779        2.00456        0.79738
H          3.19946        2.04492        1.74073
H          4.76082        2.43355        0.99675
H          3.27030        2.65378        0.05904
C          4.60283       -0.29781        1.34215
H          5.61736        0.07869        1.54795
H          4.03707       -0.29691        2.28679
H          4.67613       -1.33684        0.99084
