24
Imidazole_H6_Int2_Sub2.log	Energy: -797038.9569190
C          0.53331        1.09596        0.13065
C          1.82645        1.42138       -0.26700
N          0.10225        2.26897        0.71943
Cl         2.92961        0.41217       -1.12571
N          2.16614        2.68758        0.06607
C          1.09929        3.18098        0.65359
H         -0.84758        2.40729        1.04758
H          1.00789        4.19074        1.05342
O          0.62908       -1.81330       -0.28730
C          1.55040       -2.00236        0.51095
O          1.82954       -1.19531        1.49219
C          2.44492       -3.18369        0.39044
H          2.67881       -3.58954        1.38310
H          1.98955       -3.94171       -0.25498
H          3.38722       -2.83509       -0.06077
H          1.32050       -0.35350        1.36146
Pd        -0.77433       -0.33082       -0.12070
O         -2.78130       -1.24424       -0.29783
C         -3.22641       -0.09250       -0.10570
O         -2.39032        0.86553        0.08722
C         -4.68691        0.21716       -0.12309
H         -4.94317        0.65272       -1.10114
H         -5.27006       -0.70002        0.02116
H         -4.92847        0.96098        0.64764
