45
Imidazole_H6_deriv1_Int2_Sub12.log	Energy: -681265.3184209
C         -0.23008       -0.37331       -0.58315
C          0.39700       -1.41670       -1.25154
N          0.80777        0.47069       -0.25273
H         -0.06462       -2.28816       -1.71586
N          1.74739       -1.21233       -1.30898
C          1.97398       -0.06421       -0.70189
H          0.67070        1.37200        0.18898
C          3.32819        0.56067       -0.47151
O         -2.84865       -1.67137       -0.28465
C         -2.44480       -2.66597        0.32295
O         -1.26611       -2.75674        0.86335
C         -3.30061       -3.87635        0.47445
H         -3.31884       -4.18277        1.52972
H         -4.31293       -3.67259        0.11127
H         -2.85305       -4.70336       -0.09702
H         -0.70845       -1.98008        0.57342
Pd        -2.03862        0.21901       -0.19692
O         -3.65332        1.68532        0.30668
C         -2.74305        2.53909        0.30406
O         -1.53749        2.16162        0.06254
C         -3.00237        3.99152        0.54314
H         -2.97132        4.52050       -0.42170
H         -3.99089        4.13065        0.99630
H         -2.21648        4.41780        1.18099
C          4.12961        0.41571       -1.77078
H          5.17403        0.73326       -1.63265
H          4.11127       -0.61889       -2.13391
H          3.68585        1.04676       -2.55560
C          3.15212        2.05704       -0.18167
H          2.68737        2.25380        0.79719
H          4.12239        2.57130       -0.18996
H          2.52766        2.52687       -0.95700
C          4.03836       -0.17740        0.74006
C          4.49251       -1.58060        0.32477
H          3.67150       -2.13820       -0.14880
H          4.83356       -2.13872        1.21105
H          5.33349       -1.54408       -0.38309
C          5.26294        0.60946        1.21879
H          4.98963        1.56194        1.69642
H          5.81400        0.01621        1.96523
H          5.96106        0.82703        0.39597
C          3.06661       -0.32470        1.91673
H          3.59459       -0.74140        2.78859
H          2.63344        0.63868        2.22776
H          2.23864       -1.00761        1.67337
