40
Imidazole_H6_Int2_Sub3.log	Energy: -655869.9918182
C          0.25194        0.91473       -0.67698
C         -1.11152        1.18645       -0.57514
N          0.74365        1.94793       -1.45440
C         -2.16380        0.47539        0.21774
N         -1.41966        2.32435       -1.27705
C         -0.28937        2.75864       -1.78023
H          1.72857        2.09329       -1.64102
H         -0.16754        3.65046       -2.39607
O          0.28037       -1.93265        0.14093
C         -0.42493       -2.30385       -0.80177
O         -0.65935       -1.58132       -1.85484
C         -1.10624       -3.62759       -0.77577
H         -1.10309       -4.07765       -1.77677
H         -0.63104       -4.28540       -0.04058
H         -2.15680       -3.46076       -0.48850
H         -0.33294       -0.64722       -1.68611
Pd         1.53917       -0.30448        0.14069
O          3.49384       -0.94962        0.98891
C          3.87954        0.21110        0.73439
O          3.05964        1.02970        0.17820
C          5.25034        0.69406        1.08226
H          5.19217        1.27846        2.01342
H          5.92363       -0.15703        1.23892
H          5.63303        1.35726        0.29529
H         -1.71138       -0.43770        0.64289
C         -3.36939        0.07984       -0.64254
H         -3.04273       -0.57180       -1.46889
H         -3.76394        0.99735       -1.11116
C         -4.45769       -0.60013        0.17971
H         -5.32050       -0.84649       -0.46060
H         -4.07552       -1.56400        0.56742
C         -4.89568        0.26664        1.35497
H         -5.65702       -0.25533        1.95754
H         -5.37821        1.18097        0.96512
C         -3.70562        0.66210        2.22200
H         -3.28883       -0.24355        2.70039
H         -4.02995        1.32215        3.04298
C         -2.61651        1.34193        1.40131
H         -2.98564        2.30079        0.99828
H         -1.74437        1.58134        2.03082
