36
Imidazole_H6_Int2_Sub12.log	Energy: -607319.6543886
C          0.36325       -0.49381       -0.34659
C          0.95937       -1.62265       -0.89184
N          1.43107        0.25827        0.09470
H          0.47367       -2.46529       -1.38397
N          2.32174       -1.55565       -0.77650
C          2.58319       -0.40922       -0.18788
H          1.32880        1.19004        0.48043
C          3.94870        0.12514        0.16135
O         -2.39573       -1.51252       -0.36965
C         -2.18279       -2.52447        0.30260
O         -1.09887       -2.72320        0.99174
C         -3.17820       -3.63167        0.36427
H         -3.36151       -3.90209        1.41360
H         -4.10878       -3.33255       -0.12843
H         -2.75600       -4.51868       -0.13153
H         -0.42579       -2.02151        0.76277
Pd        -1.40956        0.28736       -0.21438
O         -2.91624        1.92501        0.03567
C         -1.93016        2.68329        0.13485
O         -0.74871        2.17937        0.06646
C         -2.06713        4.16233        0.30194
H         -1.85583        4.64888       -0.66260
H         -3.08676        4.41569        0.61507
H         -1.33177        4.53251        1.02886
C          5.00669       -0.84862       -0.35245
H          6.01254       -0.47769       -0.10178
H          4.87285       -1.84433        0.09241
H          4.93398       -0.96871       -1.44245
C          4.14263        1.49856       -0.49627
H          3.40144        2.23286       -0.14239
H          5.14142        1.89809       -0.26040
H          4.05031        1.42697       -1.59034
C          4.06485        0.26218        1.68634
H          5.05872        0.64791        1.96312
H          3.31215        0.95720        2.09102
H          3.92501       -0.71182        2.17899
