27
Imidazole_H6_Int2_Sub14.log	Energy: -533370.9101501
C         -1.11478       -0.35559       -0.23880
C         -2.31258        0.11472       -0.76025
N         -1.44437       -1.59509        0.26728
H         -2.49037        1.05302       -1.28581
N         -3.31726       -0.79449       -0.57028
C         -2.76756       -1.82019        0.04226
H         -0.76157       -2.23538        0.65683
C         -3.47109       -3.06236        0.45597
O          0.35483        2.18417       -0.42141
C         -0.42747        2.85461        0.25670
O         -1.36057        2.34487        1.00414
C         -0.36544        4.34347        0.25697
H         -0.35870        4.71027        1.29292
H          0.52320        4.68588       -0.28274
H         -1.27405        4.73803       -0.22224
H         -1.44016        1.36706        0.81547
Pd         0.75266        0.17688       -0.20287
O          2.96531       -0.10645       -0.03374
C          2.70016       -1.31592        0.12289
O          1.46911       -1.68809        0.12083
C          3.76127       -2.35629        0.28393
H          3.87989       -2.89159       -0.67063
H          4.71519       -1.88645        0.55087
H          3.46166       -3.09155        1.04266
H         -3.00661       -3.95974        0.01692
H         -4.51035       -3.00198        0.11103
H         -3.47356       -3.18755        1.55089
