36
Indolizine_H13_Int2_Sub31.log	Energy: -654338.7317662
C         -0.21171        0.43532       -0.48793
C         -0.74362        1.27690       -1.47243
N         -1.29360       -0.17861        0.12311
C         -2.14838        1.20091       -1.43836
H         -0.14860        1.89393       -2.14479
C         -2.47942        0.28385       -0.43998
C         -1.28369       -1.09746        1.14791
H         -2.84477        1.77429       -2.04682
C         -3.73014       -0.19519        0.06753
C         -2.46894       -1.55162        1.63742
H         -0.30168       -1.42367        1.48503
C         -3.71071       -1.10882        1.10528
N         -4.87640        0.30129       -0.50004
H         -2.45607       -2.28441        2.44543
H         -4.64048       -1.50355        1.51399
O          2.35285        1.78566       -0.03522
C          1.82570        2.75904        0.51159
O          0.57482        2.81153        0.84612
C          2.61866        3.98346        0.82333
H          2.47425        4.25274        1.87916
H          3.67864        3.81399        0.60866
H          2.23818        4.82047        0.21914
H          0.11475        1.99599        0.46691
Pd         1.64125       -0.13884       -0.20926
O          3.40734       -1.45229       -0.00682
C          2.60409       -2.40392       -0.13837
O          1.35672       -2.14614       -0.27620
C          3.05225       -3.82968       -0.16653
H          3.04817       -4.18152       -1.20951
H          4.06799       -3.91665        0.23706
H          2.35039       -4.45779        0.39816
H         -4.76651        0.67639       -1.43173
C         -6.16763       -0.22680       -0.17306
H         -6.93429        0.30018       -0.75664
H         -6.39739       -0.06622        0.89332
H         -6.26288       -1.31246       -0.37446
