35
Indolizine_H13_Int2_Sub16.log	Energy: -666788.2261199
C          0.55684        0.11504        0.11889
C          1.49017        0.83880        0.89030
N          1.24841       -0.94268       -0.43208
C          2.75007        0.23271        0.76279
H          1.24489        1.72205        1.47696
C          2.60244       -0.88342       -0.07011
C          0.78524       -1.96164       -1.22660
O          3.94706        0.59027        1.27214
C          3.50280       -1.84095       -0.58278
C          1.64716       -2.90061       -1.70820
H         -0.28880       -1.96252       -1.40951
C          3.03769       -2.84200       -1.39541
H          4.55507       -1.75537       -0.30744
H          1.25087       -3.70138       -2.33391
H          3.71906       -3.59373       -1.79744
O         -1.44696        2.21834       -0.16971
C         -0.76324        2.84094       -0.98916
O          0.29676        2.35927       -1.55684
C         -1.12127        4.23428       -1.38313
H         -1.19051        4.29550       -2.47856
H         -2.06880        4.52825       -0.92039
H         -0.31616        4.91532       -1.07002
H          0.51011        1.47386       -1.11112
Pd        -1.40212        0.19207        0.20530
O         -3.50454       -0.43301        0.46903
C         -3.04903       -1.58670        0.63899
O         -1.78311       -1.76930        0.55445
C         -3.92546       -2.75273        0.96381
H         -3.85008       -2.96204        2.04188
H         -4.96887       -2.52431        0.71613
H         -3.58106       -3.64674        0.42716
C          3.94905        1.70855        2.10979
H          3.61551        2.61878        1.57757
H          3.29741        1.56080        2.99046
H          4.98158        1.85680        2.45173
