47
Indole_H13_Int2_Sub19.log	Energy: -742142.6520978
C         -0.84364       -0.68173       -0.37570
C         -0.80124       -2.00506       -0.79293
N          0.43019       -0.29106       -0.04489
C          0.57114       -2.43045       -0.71990
H         -1.63391       -2.58389       -1.18901
C          1.31780       -1.31949       -0.25086
H          0.65420        0.66316        0.20856
C          1.24481       -3.62873       -1.00694
C          2.70884       -1.34848       -0.05477
C          2.61677       -3.67631       -0.81624
H          0.69894       -4.50175       -1.37230
C          3.33362       -2.55748       -0.34865
C          3.42536       -0.10396        0.40901
H          3.16075       -4.59917       -1.03149
H          4.41303       -2.64839       -0.21410
O         -3.76816       -0.68144        0.04279
C         -3.83770       -1.64378        0.81104
O         -2.80853       -2.24255        1.33094
C         -5.15677       -2.21742        1.20376
H         -5.23482       -3.24202        0.81066
H         -5.21234       -2.28557        2.29952
H         -5.97102       -1.59889        0.81313
H         -1.96556       -1.92630        0.89423
Pd        -2.22646        0.66097       -0.21790
O         -3.05435        2.75294       -0.09363
C         -1.86769        3.11909       -0.20802
O         -0.94617        2.22638       -0.30789
C         -1.47076        4.55930       -0.26276
H         -2.28887        5.19258        0.09984
H         -0.55813        4.72431        0.32557
H         -1.24543        4.82500       -1.30695
H          2.80102        0.35047        1.20496
C          3.53613        0.93312       -0.72176
H          2.54416        1.13141       -1.15865
H          4.14266        0.49222       -1.53265
C          4.17505        2.23051       -0.23974
H          4.27150        2.93954       -1.07793
H          3.50430        2.71143        0.49588
C          5.53245        1.98077        0.40800
H          5.95422        2.92250        0.79525
H          6.23784        1.61770       -0.36144
C          5.43318        0.94309        1.52105
H          4.82113        1.35109        2.34602
H          6.42897        0.74004        1.94717
C          4.80187       -0.35253        1.02274
H          5.46357       -0.80055        0.26033
H          4.72191       -1.08771        1.83965
