31
Indolizine_H14_Int2_Sub18.log	Energy: -883294.1400559
C          0.20273        0.11211       -0.36107
C          1.11417       -0.66732        0.34890
C          0.94121        0.94735       -1.23823
H          0.95481       -1.45260        1.08156
N          2.37842       -0.34307       -0.07443
C          2.29279        0.66026       -1.06438
H          0.54630        1.67677       -1.94256
C          3.59667       -0.83381        0.31955
C          3.49133        1.14366       -1.63780
C          4.75411       -0.36834       -0.23377
Cl         3.57254       -2.04976        1.53219
C          4.70058        0.64144       -1.23336
H          3.42268        1.91700       -2.40437
H          5.70120       -0.78624        0.10560
H          5.63039        1.00745       -1.67182
O         -1.91324        2.03218       -0.01666
C         -1.26834        2.75683        0.74286
O         -0.21766        2.36496        1.40357
C         -1.64855        4.18119        0.96161
H         -0.86934        4.82699        0.52942
H         -2.61393        4.39129        0.49022
H         -1.68634        4.39214        2.03938
H          0.03971        1.45990        1.08422
Pd        -1.73572       -0.01654       -0.19228
O         -3.76599       -0.89615       -0.08562
C         -3.19075       -2.00320       -0.19993
O         -1.91392       -2.03496       -0.28204
C         -3.94976       -3.28987       -0.27363
H         -4.01201       -3.60338       -1.32703
H         -3.41820       -4.07689        0.27745
H         -4.96504       -3.15444        0.11790
