34
Indole_H13_deriv1_Int2_Sub10.log	Energy: -907933.8845715
C         -0.24822       -0.36771       -0.01732
C         -1.10525       -0.90472       -0.96598
N         -1.03640        0.03134        1.04575
C         -2.44733       -0.83959       -0.45025
H         -0.78505       -1.35071       -1.90587
C         -2.37289       -0.23513        0.82850
Cl        -0.45033        0.80722        2.42668
C         -3.70246       -1.23437       -0.95867
C         -3.49270       -0.00011        1.62640
C         -4.81724       -0.99836       -0.15983
C         -3.80249       -1.88113       -2.30577
C         -4.71790       -0.39287        1.10659
H         -3.40024        0.46804        2.60755
H         -5.80266       -1.29453       -0.52914
H         -5.62550       -0.23046        1.69246
O          1.31566        1.98505       -0.36380
C          0.41469        2.60518       -0.93385
O         -0.63495        2.06492       -1.47319
C          0.46467        4.09279       -1.02968
H          0.19338        4.41334       -2.04441
H         -0.28571        4.51029       -0.34070
H          1.45967        4.45647       -0.75343
H         -0.66915        1.07783       -1.30503
Pd         1.66240       -0.02451       -0.11404
O          3.82757       -0.29861       -0.16720
C          3.59853       -1.51797        0.02459
O          2.38308       -1.90483        0.11679
C          4.69563       -2.51991        0.17655
H          5.63134       -2.12264       -0.23457
H          4.83639       -2.72921        1.24809
H          4.41895       -3.46224       -0.31429
H         -3.21848       -2.81523       -2.34252
H         -3.40215       -1.22321       -3.09455
H         -4.84397       -2.12123       -2.56038
