31
Indole_H14_Int2_Sub18.log	Energy: -883312.0163072
C          0.15031       -0.47488       -0.28048
C          1.34108       -0.04471        0.42002
C          0.57148       -1.42391       -1.19226
C          2.42746       -0.76959       -0.13975
C          1.59673        0.87333        1.45337
H         -0.02014       -2.01531       -1.88893
N          1.93278       -1.59565       -1.10749
C          3.73791       -0.57531        0.30509
C          2.90212        1.05388        1.88673
H          0.77263        1.42345        1.91248
H          2.49927       -2.21812       -1.66692
C          3.97407        0.33848        1.31897
Cl         5.02109       -1.48741       -0.42742
H          3.11349        1.75906        2.69370
H          4.99524        0.49019        1.67185
O         -1.19677        2.03158        0.15358
C         -0.50167        2.62902       -0.67208
O          0.14320        2.03979       -1.63433
C         -0.32496        4.10628       -0.60454
H          0.67226        4.30993       -0.18377
H         -0.35382        4.53880       -1.61317
H         -1.09077        4.55074        0.03955
H          0.10249        1.05399       -1.48009
Pd        -1.70627        0.03469        0.07086
O         -3.88246       -0.14423        0.42642
C         -3.71200       -1.37602        0.27539
O         -2.53843       -1.81197        0.00702
C         -4.82921       -2.35805        0.42942
H         -4.77190       -2.80230        1.43506
H         -5.79617       -1.85251        0.32013
H         -4.72612       -3.17081       -0.30149
