34
Indolizine_H13_Int2_Sub9.log	Energy: -806375.3833670
C         -0.17833        0.01668       -0.07054
C         -1.20667        0.71443       -0.70427
N         -0.77309       -1.09431        0.51497
C         -2.42817        0.04804       -0.48501
H         -1.08058        1.62703       -1.28465
C         -2.15265       -1.08743        0.28385
C         -0.17660       -2.09959        1.22867
C         -3.76971        0.51477       -0.90575
C         -2.94103       -2.12611        0.83111
C         -0.93230       -3.10600        1.75278
H          0.90780       -2.03831        1.31123
C         -2.34122       -3.12082        1.55864
H         -4.01628       -2.11102        0.65175
H         -0.43702       -3.89894        2.31407
H         -2.93992       -3.92855        1.98358
O          1.65677        2.27924        0.11192
C          0.99320        2.87430        0.96631
O          0.01671        2.33081        1.62648
C          1.26667        4.30129        1.29602
H          1.33655        4.41959        2.38629
H          2.18821        4.63378        0.80769
H          0.41752        4.91307        0.95576
H         -0.17516        1.43697        1.21439
Pd         1.76094        0.25348       -0.23168
O          3.88861       -0.17153       -0.57228
C          3.54470       -1.36689       -0.71624
O          2.30578       -1.66920       -0.57612
C          4.51665       -2.44292       -1.07212
H          4.42781       -2.65616       -2.14845
H          5.54067       -2.11521       -0.85718
H          4.27695       -3.36650       -0.52884
F         -3.68880        1.37756       -1.92474
F         -4.43466        1.14552        0.07896
F         -4.55968       -0.49961       -1.29356
