34
Indolizine_H14_Int2_Sub6.log	Energy: -619628.5794049
C          0.49762       -0.11150       -0.22722
C          1.22109       -0.93340        0.64514
C          1.41192        0.47623       -1.14087
C          0.76522       -1.80888        1.75386
N          2.54432       -0.85736        0.27859
C          2.68344        0.00640       -0.82439
H          1.18034        1.16019       -1.95472
C          3.62756       -1.48621        0.83660
C          3.98122        0.21402       -1.34760
C          4.87593       -1.28268        0.32685
H          3.42281       -2.13797        1.68576
C          5.06294       -0.41572       -0.78749
H          4.09216        0.88174       -2.20396
H          5.72324       -1.79455        0.78486
H          6.06491       -0.25827       -1.19072
O         -1.27811        2.16075       -0.25327
C         -0.54886        2.85366        0.45878
O          0.41486        2.37890        1.19154
C         -0.71571        4.33367        0.52452
H          0.14876        4.80883        0.03646
H         -1.64010        4.63306        0.02025
H         -0.71854        4.66013        1.57361
H          0.54398        1.41779        0.95851
Pd        -1.44273        0.10408       -0.22807
O         -3.60919       -0.41286       -0.22942
C         -3.22796       -1.60399       -0.18804
O         -1.97296       -1.85757       -0.14911
C         -4.19053       -2.74936       -0.20972
H         -4.19997       -3.18494       -1.22058
H         -3.86264       -3.53318        0.48611
H         -5.20023       -2.40221        0.03975
H          1.05939       -2.85953        1.58796
H         -0.33033       -1.78298        1.80375
H          1.17158       -1.50150        2.73347
