39
Indole_H13_deriv1_Int2_Sub7.log	Energy: -678998.8714440
C         -0.30402       -0.10006        0.28626
C         -1.21476       -0.71578       -0.57294
N         -1.01876        0.38981        1.37929
C         -2.52994       -0.57043        0.02000
N         -0.96523       -1.38985       -1.76072
C         -2.35085        0.12677        1.24327
H         -0.58880        0.79950        2.19438
C         -3.82525       -0.98238       -0.36657
C         -3.42041        0.43726        2.09102
C         -4.87822       -0.66919        0.48853
C         -4.07196       -1.73610       -1.64134
C         -4.68344        0.03008        1.69364
H         -3.26213        0.97426        3.02886
H         -5.88874       -0.98417        0.21506
H         -5.54521        0.24982        2.32844
O          1.39639        2.18261       -0.01618
C          0.54922        2.79066       -0.67963
O         -0.50143        2.24430       -1.20175
C          0.68646        4.25663       -0.92322
H          0.59634        4.45859       -1.99983
H         -0.14224        4.78069       -0.42407
H          1.64663        4.61797       -0.54119
H         -0.57122        1.27983       -0.88730
Pd         1.63572        0.15540        0.25036
O          3.80477       -0.23016        0.33404
C          3.50040       -1.43439        0.50136
O          2.26270       -1.76127        0.52586
C          4.53165       -2.50099        0.68446
H          5.53488       -2.09614        0.50777
H          4.46561       -2.89299        1.71033
H          4.32612       -3.33694        0.00137
H         -3.37745       -2.58261       -1.74687
H         -3.93984       -1.08883       -2.52610
H         -5.10000       -2.12244       -1.67644
H         -1.64525       -1.19053       -2.48292
C          0.37698       -1.54634       -2.24746
H          0.35894       -2.14772       -3.16792
H          0.99015       -2.07645       -1.50405
H          0.89262       -0.58806       -2.47613
