34
Indole_H13_Int2_Sub14.log	Energy: -619644.0707042
C         -0.36959       -0.17089       -0.14510
C         -1.44277        0.59652       -0.58004
N         -0.86235       -1.31363        0.43337
C         -2.64239       -0.12623       -0.25316
H         -1.37944        1.52282       -1.14823
C         -2.23420       -1.32825        0.37982
H         -0.26327       -2.06192        0.75941
C         -4.01412        0.13861       -0.44587
C         -3.15181       -2.28148        0.83203
C         -4.91748       -0.81767        0.00745
C         -4.45484        1.40418       -1.11512
C         -4.49696       -2.00589        0.63432
H         -2.82364       -3.20278        1.31794
H         -5.98782       -0.64007       -0.12809
H         -5.24778       -2.72454        0.97130
O          1.51403        2.09337       -0.27935
C          0.90281        2.88487        0.44242
O         -0.15677        2.58160        1.13080
C          1.34555        4.30284        0.57213
H          0.57274        4.96138        0.14841
H          1.44076        4.55833        1.63706
H          2.29713        4.45236        0.05219
H         -0.49930        1.68082        0.85947
Pd         1.55214        0.03337       -0.21364
O          3.69543       -0.62749       -0.19751
C          3.23429       -1.78123       -0.08132
O          1.95895       -1.93983       -0.02721
C          4.10629       -2.99425       -0.03116
H          5.14166       -2.70823        0.18812
H          3.72914       -3.70272        0.71850
H          4.07127       -3.49616       -1.01022
H         -4.05175        1.47499       -2.13893
H         -4.09342        2.29059       -0.56787
H         -5.55011        1.46744       -1.17747
