47
Indolizine_H13_Int2_Sub11.log	Energy: -742126.9028401
C          0.30108       -0.15808        0.02871
C         -0.91676        0.31838       -0.47425
N          0.02761       -1.39656        0.57870
C         -1.94779       -0.60630       -0.20530
H         -1.03025        1.27009       -0.99307
C         -1.34379       -1.67924        0.45929
C          0.88991       -2.28452        1.16658
C         -3.41310       -0.45426       -0.47956
C         -1.83037       -2.88814        1.01207
C          0.42057       -3.45467        1.68397
H          1.94003       -1.99404        1.16094
C         -0.96841       -3.76543        1.61611
H         -2.89887       -3.09955        0.94121
H          1.12634       -4.14758        2.14349
H         -1.33803       -4.70087        2.04026
O          1.62457        2.42979        0.31612
C          0.90134        2.78634        1.25103
O          0.08023        1.99755        1.87155
C          0.91609        4.19649        1.73616
H          1.05083        4.20643        2.82692
H          1.71408        4.75970        1.24182
H         -0.06020        4.65770        1.52470
H          0.04919        1.12299        1.36917
Pd         2.11403        0.51696       -0.27317
O          4.24884        0.58630       -0.84463
C          4.13381       -0.63642       -1.08575
O          3.00351       -1.20428       -0.87600
C          5.25856       -1.45274       -1.63538
H          5.09247       -1.60291       -2.71315
H          6.21235       -0.93191       -1.48971
H          5.27542       -2.44298       -1.16103
H         -3.86135       -1.46581       -0.48310
C         -3.69876        0.16666       -1.84994
H         -3.21465       -0.43376       -2.63655
H         -3.23337        1.16803       -1.89356
C         -5.19433        0.30271       -2.11201
H         -5.36739        0.77384       -3.09329
H         -5.64494       -0.70497       -2.16956
C         -5.88614        1.09781       -1.00984
H         -6.97067        1.15490       -1.19807
H         -5.51297        2.13826       -1.02661
C         -5.61390        0.49267        0.36300
H         -6.08830       -0.50422        0.41922
H         -6.08244        1.10153        1.15350
C         -4.11906        0.34840        0.62430
H         -3.65024        1.34786        0.67990
H         -3.93686       -0.13002        1.60022
