31
Indolizine_H14_Int2_Sub26.log	Energy: -883296.0979796
C          0.13013       -0.32275        0.05264
C          0.62069       -1.35901        0.84441
C          1.24061        0.28787       -0.58962
H          0.09479       -2.08656        1.45813
N          1.98237       -1.40739        0.70509
C          2.38230       -0.39205       -0.17953
H          1.23219        1.12015       -1.28925
C          2.88482       -2.26117        1.28438
C          3.77050       -0.27345       -0.44859
C          4.21367       -2.13502        1.01137
H          2.47010       -3.01790        1.95084
C          4.67961       -1.12058        0.12775
Cl         4.26765        0.97859       -1.52807
H          4.91985       -2.82260        1.47783
H          5.74197       -1.01357       -0.09243
O         -1.38886        2.11793       -0.16031
C         -0.75058        2.72303        0.70250
O         -0.03496        2.13573        1.61831
C         -0.73653        4.21171        0.75539
H          0.25986        4.56429        0.44781
H         -1.49889        4.62087        0.08472
H         -0.89906        4.54951        1.78800
H          0.02124        1.16947        1.39923
Pd        -1.76268        0.08814       -0.17009
O         -3.94398       -0.21952       -0.42459
C         -3.68553       -1.44231       -0.34678
O         -2.47361       -1.81161       -0.16100
C         -4.74316       -2.48943       -0.49533
H         -4.71284       -2.87748       -1.52510
H         -4.54689       -3.32902        0.18436
H         -5.73355       -2.05703       -0.30903
