47
Indole_H14_Int2_Sub3.log	Energy: -742144.3974652
C         -0.59415       -0.37853       -0.25881
C         -1.81259       -0.99538       -0.73326
C          0.31189       -1.40694       -0.04854
C         -1.58232       -2.39787       -0.76957
C         -3.07153       -0.50567       -1.11550
C          1.74209       -1.33219        0.37154
N         -0.28996       -2.60837       -0.35691
C         -2.57077       -3.30422       -1.16062
C         -4.05498       -1.40387       -1.50790
H         -3.26258        0.57028       -1.11225
H          0.14871       -3.51290       -0.26093
C         -3.80757       -2.78907       -1.52849
H         -2.37922       -4.37986       -1.17982
H         -5.03588       -1.03242       -1.81382
H         -4.60004       -3.47201       -1.84340
O         -1.90873        1.87157        0.95564
C         -2.31719        1.18878        1.89966
O         -1.80514        0.04681        2.24165
C         -3.48061        1.63320        2.71823
H         -4.35894        1.04595        2.40764
H         -3.29950        1.42195        3.78023
H         -3.67692        2.69779        2.55369
H         -1.16505       -0.23832        1.51966
Pd        -0.19697        1.53592       -0.14022
O          0.87966        3.47210       -0.41731
C          1.73547        2.79810       -1.03289
O          1.56548        1.53507       -1.15621
C          2.96030        3.42810       -1.61903
H          2.66516        4.27575       -2.25320
H          3.58130        3.82971       -0.80464
H          3.53783        2.69982       -2.20052
H          1.90384       -0.28793        0.68654
C          2.69201       -1.59194       -0.80682
H          2.44960       -0.88722       -1.61517
H          2.51847       -2.61209       -1.19727
C          4.14785       -1.44550       -0.38240
H          4.81482       -1.66541       -1.23170
H          4.32989       -0.39019       -0.11024
C          4.48398       -2.34097        0.80520
H          5.52864       -2.18788        1.12120
H          4.40686       -3.39917        0.49424
C          3.53643       -2.09481        1.97457
H          3.69321       -1.07111        2.35962
H          3.76543       -2.77799        2.80847
C          2.07790       -2.24478        1.55635
H          1.89202       -3.29968        1.27821
H          1.40543       -2.02400        2.40152
