40
Indolizine_H13_Int2_Sub5.log	Energy: -668928.7778989
C          0.66193       -0.19178        0.09155
C          1.67321        0.39365        0.87328
N          1.14947       -1.41914       -0.33065
C          2.79212       -0.46638        0.87959
C          1.54603        1.70223        1.60389
C          2.46197       -1.59490        0.13128
C          0.52194       -2.37492       -1.08135
H          3.75125       -0.29655        1.36463
C          3.15041       -2.77473       -0.23896
C          1.17989       -3.51904       -1.42507
H         -0.51195       -2.15800       -1.35020
C          2.52423       -3.72429       -1.00416
H          4.17848       -2.90467        0.10392
H          0.65849       -4.27016       -2.01932
H          3.04875       -4.63861       -1.28822
O         -0.90658        2.11434       -0.91162
C          0.03319        2.49856       -1.61567
O          1.12579        1.82743       -1.79214
C         -0.02480        3.81910       -2.30669
H          0.37186        3.72693       -3.32640
H         -1.05183        4.19875       -2.31431
H          0.62252        4.52440       -1.76277
H          1.10559        1.01486       -1.17966
Pd        -1.24179        0.27352       -0.05398
O         -3.44053        0.07767        0.12922
C         -3.20714       -1.05384        0.61112
O         -1.99038       -1.44666        0.70700
C         -4.29382       -1.95476        1.10220
H         -4.30360       -1.93141        2.20259
H         -5.26677       -1.61678        0.72649
H         -4.09327       -2.99000        0.79515
H          0.62522        2.18872        1.23804
C          1.35838        1.45859        3.10214
H          1.20973        2.40758        3.64162
H          0.48566        0.81466        3.28592
H          2.24094        0.95723        3.53012
C          2.72326        2.63516        1.32842
H          2.84383        2.81855        0.24984
H          2.58313        3.60465        1.83201
H          3.66672        2.20389        1.69910
