34
Indolizine_H14_Int2_Sub25.log	Energy: -806371.1909888
C          0.26599       -0.43047       -0.13453
C         -0.09172       -1.55712       -0.86914
C         -0.92838        0.14474        0.37813
H          0.52640       -2.28946       -1.38296
N         -1.45401       -1.69232       -0.81939
C         -1.99069       -0.64232       -0.05138
H         -1.01686        1.02713        1.00703
C         -2.24816       -2.65117       -1.38480
C         -3.40266       -0.60038        0.10682
C         -3.60086       -2.60868       -1.22290
H         -1.73121       -3.42500       -1.95403
C         -4.19488       -1.56198       -0.46519
C         -3.99322        0.52423        0.90580
H         -4.21734       -3.38293       -1.67986
H         -5.27676       -1.52009       -0.33799
O          1.55534        2.12972        0.05507
C          0.94155        2.63882       -0.88425
O          0.38631        1.95114       -1.84127
C          0.76669        4.11379       -0.98938
H         -0.28114        4.35660       -0.75405
H          1.43139        4.62446       -0.28522
H          0.95629        4.44156       -2.02035
H          0.41233        0.99278       -1.59098
Pd         2.10255        0.14325        0.17373
O          4.28126        0.02969        0.56070
C          4.12897       -1.21266        0.52341
O          2.96374       -1.68906        0.28747
C          5.25771       -2.16019        0.77718
H          5.20455       -2.49917        1.82325
H          5.16593       -3.04471        0.13337
H          6.21854       -1.65632        0.61753
F         -5.32360        0.44721        0.96951
F         -3.68782        1.71586        0.37357
F         -3.53153        0.53476        2.16069
