46
Indole_H13_deriv1_Int2_Sub12.log	Energy: -718236.3738323
C         -0.21011       -0.12766       -0.32403
C         -0.96876        0.40663       -1.35634
N         -1.04551       -0.78825        0.55924
C         -2.33623        0.05551       -1.11745
H         -0.56561        0.92076       -2.22733
C         -2.35749       -0.68411        0.09178
C         -0.67441       -1.53493        1.78409
C         -3.52073        0.33080       -1.83022
C         -3.57567       -1.15124        0.61145
C         -4.71203       -0.14780       -1.29874
C         -3.46677        1.11265       -3.10665
C         -4.73657       -0.87379       -0.09675
H         -3.64039       -1.71400        1.54066
H         -5.64934        0.04751       -1.82662
H         -5.69261       -1.22984        0.29417
O          1.39258        1.90935        0.95214
C          0.46819        2.71626        1.08169
O         -0.67357        2.64433        0.47450
C          0.60859        3.88548        2.00014
H          0.40525        4.81231        1.44509
H         -0.14895        3.81085        2.79435
H          1.61308        3.90981        2.43463
H         -0.73265        1.82734       -0.11795
Pd         1.70105        0.22816       -0.21028
O          3.87047        0.10154       -0.57480
C          3.62333       -0.96253       -1.19033
O          2.41105       -1.36339       -1.27196
C          4.69646       -1.77112       -1.84627
H          5.68602       -1.39713       -1.55886
H          4.58669       -2.82908       -1.57058
H          4.57969       -1.70281       -2.93825
H         -2.83491        0.60883       -3.85636
H         -3.03130        2.11247       -2.94378
H         -4.46783        1.24554       -3.53994
C          0.83336       -1.54321        2.01513
H          1.03578       -2.14386        2.91429
H          1.37414       -2.00001        1.17405
H          1.23258       -0.53446        2.19487
C         -1.32927       -0.86145        2.99503
H         -2.42286       -0.82274        2.92194
H         -1.06654       -1.40253        3.91608
H         -0.96382        0.17251        3.08860
C         -1.11020       -2.99666        1.62530
H         -0.84344       -3.56550        2.52819
H         -2.18747       -3.10912        1.45834
H         -0.58953       -3.44586        0.76687
