47
Indolizine_H13_Int2_Sub27.log	Energy: -742127.4441172
C          0.68929        0.33091       -0.41750
C          0.01243        1.11249       -1.36146
N         -0.28248       -0.42503        0.21933
C         -1.36871        0.85976       -1.27709
H          0.49745        1.80703       -2.04677
C         -1.55071       -0.10522       -0.28430
C         -0.11710       -1.36935        1.19752
H         -2.15678        1.33107       -1.85926
C         -2.70213       -0.74374        0.26334
C         -1.20670       -1.99910        1.71583
H          0.91254       -1.57748        1.48562
C         -2.51374       -1.68126        1.25051
C         -4.05449       -0.32644       -0.25623
H         -1.06234       -2.75504        2.48857
H         -3.36968       -2.19714        1.68752
O          3.09334        1.97738       -0.11904
C          2.49242        2.87849        0.47387
O          1.27476        2.77257        0.90534
C          3.14612        4.19415        0.73080
H          3.04956        4.44802        1.79585
H          4.19956        4.15873        0.43519
H          2.61830        4.97365        0.16137
H          0.89356        1.90598        0.55331
Pd         2.60962       -0.02012       -0.24189
O          4.52785       -1.11171       -0.13597
C          3.83912       -2.15390       -0.21783
O          2.56330       -2.04791       -0.28249
C          4.45250       -3.51569       -0.27057
H          4.44264       -3.86750       -1.31358
H          5.48922       -3.47924        0.08453
H          3.85824       -4.22235        0.32386
H         -3.94543       -0.17966       -1.34750
C         -4.48832        1.02345        0.33890
H         -3.69897        1.77443        0.18002
H         -4.58724        0.90241        1.43257
C         -5.81081        1.49904       -0.25126
H         -6.11376        2.45032        0.21574
H         -5.66935        1.71352       -1.32634
C         -6.90733        0.45214       -0.08927
H         -7.83998        0.79313       -0.56739
H         -7.13528        0.33167        0.98551
C         -6.47690       -0.89478       -0.66033
H         -6.36078       -0.80621       -1.75576
H         -7.26062       -1.65129       -0.49332
C         -5.15849       -1.36312       -0.05375
H         -5.30757       -1.53368        1.02741
H         -4.85137       -2.32939       -0.48540
