34
Indolizine_H13_Int2_Sub14.log	Energy: -619627.5210474
C         -0.65756        0.26887       -0.32311
C         -1.40451        1.06954       -1.20005
N         -1.56246       -0.60471        0.25200
C         -2.76680        0.71948       -1.13920
H         -0.98125        1.85177       -1.83101
C         -2.85614       -0.33444       -0.22265
C         -1.33248       -1.61118        1.15185
C         -3.90548        1.34472       -1.87403
C         -3.93445       -1.09434        0.28721
C         -2.37113       -2.35314        1.63120
H         -0.28886       -1.77364        1.41957
C         -3.70309       -2.08984        1.20104
H         -4.94206       -0.86885       -0.06736
H         -2.16185       -3.15218        2.34336
H         -4.53003       -2.68282        1.59616
O          1.63240        2.05258        0.03792
C          0.98653        2.86062        0.71257
O         -0.20171        2.62815        1.17476
C          1.54589        4.20377        1.04028
H          1.47067        4.37634        2.12317
H          2.58687        4.27273        0.70864
H          0.93798        4.97542        0.54485
H         -0.52731        1.75953        0.77221
Pd         1.28538        0.03722       -0.20306
O          3.27433       -0.92629       -0.19754
C          2.65533       -2.00557       -0.33490
O          1.37408       -1.98272       -0.37218
C          3.35719       -3.31648       -0.48465
H          3.35078       -3.60126       -1.54794
H          4.39589       -3.23222       -0.14371
H          2.82329       -4.09819        0.07186
H         -4.61587        1.84491       -1.19416
H         -4.47904        0.60162       -2.45209
H         -3.54204        2.10162       -2.58347
