46
Indole_H13_deriv1_Int2_Sub4.log	Energy: -718234.0363344
C          0.13138       -0.11522       -0.39454
C          1.16103       -0.63981        0.35269
N          0.65112        0.52295       -1.52835
C          2.40854       -0.38269       -0.39910
C          0.98407       -1.31581        1.70560
C          2.02094        0.30750       -1.58065
H          0.09877        0.58619       -2.37718
C          3.80346       -0.62832       -0.24123
C          2.88178        0.72070       -2.59089
C          4.66184       -0.19506       -1.25834
C          4.46763       -1.35545        0.89674
C          4.23040        0.45486       -2.41748
H          2.50317        1.24050       -3.47395
H          5.73166       -0.38321       -1.13451
H          4.95637        0.75855       -3.17475
O         -1.39777        1.86588        0.94865
C         -0.57089        2.77364        0.84459
O          0.35074        2.84779       -0.06640
C         -0.56283        3.90429        1.81864
H          0.30764        3.78308        2.48194
H         -0.44045        4.85805        1.28821
H         -1.48144        3.89909        2.41427
H          0.39331        2.03168       -0.64444
Pd        -1.77889        0.15303       -0.14032
O         -3.97119       -0.10903       -0.27257
C         -3.72084       -1.16116       -0.90514
O         -2.50059       -1.47023       -1.13826
C         -4.79952       -2.08271       -1.37810
H         -5.78092       -1.60490       -1.27647
H         -4.61480       -2.37316       -2.42141
H         -4.77471       -3.00077       -0.77181
H          4.46655       -2.44479        0.72626
H          4.00125       -1.18132        1.87109
H          5.52026       -1.04821        0.97093
C          1.61923       -0.44980        2.80578
H          1.59109       -0.96681        3.77869
H          2.66001       -0.17604        2.59227
H          1.05544        0.49093        2.90743
C         -0.49365       -1.48354        2.07860
H         -1.03909       -2.06765        1.32232
H         -0.56593       -2.02074        3.03762
H         -1.00088       -0.51543        2.20831
C          1.56639       -2.73702        1.67283
H          1.45620       -3.21732        2.65843
H          1.01919       -3.34406        0.93582
H          2.62496       -2.76562        1.40285
