43
Indolizine_H13_Int2_Sub4.log	Energy: -693578.4954727
C         -0.57799       -0.29987        0.24369
C         -0.99825       -1.61233       -0.04974
N         -1.62627        0.32004        0.89806
C         -2.32681       -1.75907        0.41658
C         -0.15813       -2.70201       -0.69381
C         -2.71454       -0.55982        1.00598
C         -1.69193        1.59865        1.38691
H         -2.95712       -2.64012        0.33082
C         -3.89953       -0.08977        1.62036
C         -2.83309        2.04899        1.98165
H         -0.78407        2.19348        1.27376
C         -3.96485        1.19200        2.10170
H         -4.74756       -0.77248        1.69927
H         -2.85953        3.06819        2.36894
H         -4.87500        1.55774        2.58055
O          0.40259        1.80429       -1.51251
C         -0.52910        1.63503       -2.30518
O         -1.35601        0.63950       -2.25864
C         -0.77523        2.60763       -3.40933
H         -1.77428        3.04988       -3.28228
H         -0.00939        3.38973       -3.40549
H         -0.77589        2.07334       -4.37018
H         -1.14283        0.06655       -1.45238
Pd         1.14068        0.61762       -0.00047
O          3.25352        1.19351        0.26180
C          3.28060        0.35100        1.18912
O          2.21166       -0.29908        1.46285
C          4.51799        0.06596        1.97690
H          5.31625        0.76419        1.69994
H          4.29835        0.13831        3.05133
H          4.84037       -0.96690        1.77780
C          0.85614       -3.21158        0.34159
H          1.47223       -4.01814       -0.08922
H          1.51881       -2.40340        0.68281
H          0.33638       -3.61173        1.22551
C         -1.04554       -3.86664       -1.13906
H         -1.81679       -3.53645       -1.85221
H         -0.43503       -4.63968       -1.63078
H         -1.55000       -4.33997       -0.28343
C          0.59223       -2.16806       -1.91952
H          1.21549       -2.96161       -2.36076
H         -0.10442       -1.81462       -2.69593
H          1.26048       -1.33372       -1.64791
