31
Indole_H13_Int2_Sub2.log	Energy: -883312.4535056
C         -0.45154       -0.20880       -0.03589
C         -1.51960        0.54892       -0.49360
N         -0.98167       -1.36517        0.50122
C         -2.73526       -0.15910       -0.22923
Cl        -1.44676        2.06001       -1.32246
C         -2.34681       -1.37510        0.39276
H         -0.39790       -2.13767        0.79720
C         -4.09315        0.10274       -0.46220
C         -3.29086       -2.32982        0.78539
C         -5.02656       -0.84562       -0.07293
H         -4.39545        1.03556       -0.94319
C         -4.62829       -2.04891        0.54337
H         -2.98491       -3.26339        1.26270
H         -6.08922       -0.66158       -0.24638
H         -5.38859       -2.77666        0.83640
O          1.56046        1.95584       -0.05646
C          0.95875        2.68702        0.73294
O          0.04346        2.26692        1.55638
C          1.22630        4.14930        0.78380
H          0.40791        4.65184        0.24463
H          1.21127        4.50514        1.82203
H          2.17908        4.37888        0.29581
H         -0.21316        1.34206        1.30739
Pd         1.49126       -0.09154       -0.11274
O          3.57701       -0.83642       -0.17905
C          3.07544       -1.98046       -0.14381
O          1.79611       -2.09020       -0.07672
C          3.90235       -3.22218       -0.20810
H          4.94441       -2.99717        0.04790
H          3.49060       -3.98919        0.46112
H          3.86384       -3.61836       -1.23448
