34
Indole_H13_Int2_Sub6.log	Energy: -619643.4487933
C          0.50996       -0.13816        0.14740
C          1.51685        0.59874        0.76191
N          1.08461       -1.17058       -0.56501
C          2.76215       -0.02693        0.39082
C          1.37815        1.74437        1.70996
C          2.44768       -1.14120       -0.43104
H          0.54129       -1.90339       -1.00159
C          4.10593        0.24340        0.69176
C          3.43713       -1.97846       -0.95422
C          5.09069       -0.58702        0.17393
H          4.37187        1.09353        1.32508
C          4.75833       -1.68636       -0.64002
H          3.18100       -2.83287       -1.58479
H          6.14087       -0.38845        0.40028
H          5.55502       -2.32317       -1.03187
O         -1.54311        2.00483        0.08137
C         -0.87181        2.80091       -0.58066
O          0.27483        2.51850       -1.11904
C         -1.33740        4.20074       -0.79503
H         -0.70653        4.87614       -0.19703
H         -1.20566        4.47867       -1.84958
H         -2.38352        4.30395       -0.48925
H          0.59320        1.62355       -0.79444
Pd        -1.43080       -0.05067        0.14672
O         -3.52293       -0.83577        0.09520
C         -2.99262       -1.96588        0.05598
O         -1.71028       -2.05260        0.05061
C         -3.79403       -3.22765        0.04567
H         -4.83006       -3.01682       -0.24462
H         -3.33904       -3.96250       -0.63172
H         -3.78635       -3.65890        1.05848
H          1.85779        1.50863        2.67367
H          0.32215        1.96532        1.91879
H          1.85847        2.66235        1.33046
