47
Indole_H14_Int2_Sub19.log	Energy: -742140.9359912
C         -0.74493       -0.26534       -0.25353
C          0.30438        0.42104        0.46867
C         -0.10255       -1.10489       -1.14167
C          1.54397       -0.04186       -0.04637
C          0.31380        1.38566        1.49085
H         -0.53029       -1.81790       -1.84452
N          1.26010       -0.97163       -1.01770
C          2.79157        0.42677        0.40303
C          1.53415        1.85905        1.94453
H         -0.62582        1.74076        1.92003
H          1.94538       -1.46312       -1.57216
C          2.74896        1.38967        1.40685
C          4.06427       -0.14437       -0.17369
H          1.56325        2.60657        2.74099
H          3.68389        1.79581        1.79721
O         -2.61670        1.88983        0.09214
C         -2.03193        2.61278       -0.71841
O         -1.23730        2.16650       -1.64427
C         -2.17785        4.09455       -0.67087
H         -1.27290        4.50746       -0.19792
H         -2.23855        4.50441       -1.68739
H         -3.05625        4.37043       -0.07818
H         -1.06557        1.19687       -1.46850
Pd        -2.67632       -0.17132        0.04158
O         -4.77512       -0.82548        0.34789
C         -4.32932       -1.98944        0.22720
O         -3.08157       -2.15868       -0.00280
C         -5.20433       -3.19413        0.37483
H         -5.07871       -3.59888        1.39086
H         -6.25607       -2.91899        0.23082
H         -4.90199       -3.97467       -0.33569
H          3.90540       -0.25790       -1.26581
C          4.35280       -1.54649        0.38870
H          3.47321       -2.19776        0.25888
H          4.50047       -1.45363        1.47912
C          5.58601       -2.17288       -0.25212
H          5.78604       -3.15994        0.19528
H          5.38529       -2.35467       -1.32422
C          6.80644       -1.26872       -0.11958
H          7.67395       -1.71492       -0.63221
H          7.08271       -1.19040        0.94755
C          6.52434        0.12738       -0.66448
H          6.36158        0.06690       -1.75609
H          7.39990        0.78052       -0.51951
C          5.29502        0.74564       -0.00740
H          5.49950        0.88389        1.06893
H          5.09250        1.74736       -0.41930
