35
Isoquinoline_H12_Int2_Sub9.log	Energy: -830266.1999875
C          0.51880        0.37479       -0.98799
C          1.72141       -0.12874       -0.38007
C          0.60732        0.95896       -2.24489
C          2.93278       -0.11413       -1.15450
C          1.86760       -0.64782        0.95281
C          1.81567        1.02169       -2.97114
H         -0.29766        1.35997       -2.71077
C          2.95483        0.46951       -2.44514
C          4.10324       -0.69818       -0.61470
C          0.77383       -0.57213        2.01476
N          2.96763       -1.18288        1.41494
H          1.82805        1.48481       -3.96073
H          3.89343        0.47110       -3.00398
H          5.02255       -0.70808       -1.20495
C          4.06446       -1.24581        0.64048
H          4.94095       -1.73242        1.07955
O         -1.81607        1.90134        0.22589
C         -1.14175        2.89343        0.49290
O          0.13568        2.98953        0.25621
C         -1.74647        4.09041        1.14267
H         -2.83879        4.02325        1.11191
H         -1.41113        4.11955        2.19101
H         -1.39084        5.00844        0.65624
H          0.44564        2.14637       -0.15614
Pd        -1.32614       -0.00368       -0.41326
O         -3.16725       -1.17958       -0.17827
C         -2.50359       -2.15240       -0.61052
O         -1.28555       -1.96618       -0.95195
C         -3.08085       -3.52741       -0.70772
H         -2.73635       -4.01923       -1.62708
H         -2.71854       -4.12135        0.14535
H         -4.17597       -3.48360       -0.67353
F          0.20991        0.65207        2.03797
F          1.25760       -0.78829        3.22523
F         -0.19976       -1.46302        1.81255
