37
Napthalene_H7_Int2_Sub32.log	Energy: -680637.1072583
C          0.24290       -0.44724       -0.10469
C          1.23042        0.19249        0.71601
C          0.64795       -1.43613       -0.97961
C          2.60497       -0.18071        0.59167
C          0.89928        1.19606        1.66366
C          2.00601       -1.81876       -1.10853
H         -0.09591       -1.95735       -1.58862
C          2.97245       -1.20218       -0.34226
C          3.58163        0.45902        1.39166
C          1.86750        1.80430        2.43102
H         -0.15100        1.47064        1.78231
H          2.26655       -2.60436       -1.81784
O          4.28817       -1.48793       -0.39506
H          4.62302        0.15599        1.27716
C          3.22199        1.43602        2.29234
H          1.58337        2.56931        3.15772
H          3.98456        1.92165        2.90583
O         -1.30169        1.99178       -0.49415
C         -0.51437        2.44693       -1.32443
O          0.34659        1.72694       -1.98337
C         -0.47039        3.90535       -1.62658
H         -0.33705        4.06736       -2.70414
H         -1.37957        4.39425       -1.26145
H          0.40541        4.33362       -1.11431
H          0.34238        0.80197       -1.61955
Pd        -1.66380        0.01141       -0.01863
O         -3.86577       -0.26005        0.22024
C         -3.59273       -1.45921        0.45386
O         -2.37199       -1.84244        0.41744
C         -4.64812       -2.46119        0.80355
H         -4.62299       -2.63750        1.88980
H         -5.63897       -2.08309        0.52509
H         -4.44082       -3.41879        0.30751
C          4.72553       -2.48601       -1.27284
H          4.27282       -3.46488       -1.03590
H          4.49637       -2.23497       -2.32363
H          5.81386       -2.55767       -1.15262
