36
Napthalene_H7_Int2_Sub17.log	Energy: -820217.0530913
C         -0.20142        0.01856       -0.25666
C         -0.80502        1.16977       -0.86234
C         -1.00256       -1.02363        0.16762
C         -2.22993        1.22473       -0.99074
C         -0.04379        2.26402       -1.34899
C         -2.41463       -0.95823        0.03721
H         -0.55056       -1.92136        0.59779
C         -3.01549        0.13971       -0.52426
C         -2.83003        2.36492       -1.58253
C         -0.65533        3.35769       -1.91960
H          1.04461        2.21745       -1.27384
C         -3.22720       -2.11500        0.54383
H         -4.10186        0.18548       -0.61789
H         -3.91876        2.39486       -1.67507
C         -2.06152        3.41176       -2.03539
H         -0.04868        4.18557       -2.29405
H         -2.53644        4.28341       -2.49158
O          1.81734        1.58801        1.13646
C          1.05010        1.96394        2.02286
O         -0.06221        1.35853        2.32875
C          1.33087        3.18956        2.82074
H          1.09114        3.01741        3.87825
H          2.37619        3.48996        2.69530
H          0.67197        3.99366        2.45737
H         -0.23275        0.63425        1.67819
Pd         1.73417       -0.14043        0.00448
O          3.78301       -0.98442       -0.11238
C          3.26558       -1.89977       -0.79295
O          2.00431       -1.87138       -1.01483
C          4.07307       -3.01363       -1.37797
H          4.19943       -2.83177       -2.45614
H          5.05987       -3.05862       -0.90233
H          3.53958       -3.96678       -1.26368
F         -4.53615       -1.94241        0.34536
F         -3.04278       -2.29472        1.85885
F         -2.87675       -3.25801       -0.05391
