42
Napthalene_H7_Int2_Sub29.log	Energy: -682769.0640402
C          0.03729       -0.42918       -0.02816
C          0.95632        0.24518        0.83834
C          0.52050       -1.39518       -0.88835
C          2.35661       -0.06531        0.77361
C          0.51267        1.22163        1.76902
C          1.90045       -1.70216       -0.94280
H         -0.16935       -1.94534       -1.53435
C          2.82653       -1.06030       -0.14900
C          3.23335        0.63546        1.64533
C          1.39361        1.88074        2.59430
H         -0.55783        1.43136        1.82553
H          2.22740       -2.47192       -1.64422
C          4.30866       -1.35633       -0.27378
H          4.30140        0.41629        1.62099
C          2.77016        1.58361        2.52857
H          1.02677        2.62337        3.30666
H          3.47193        2.10100        3.18716
O         -1.53020        1.95432       -0.57386
C         -0.70377        2.41895       -1.35893
O          0.21806        1.71556       -1.95160
C         -0.67959        3.87349       -1.68145
H         -0.48188        4.02358       -2.75082
H         -1.62317        4.34190       -1.38289
H          0.14957        4.33365       -1.12144
H          0.21766        0.79451       -1.58428
Pd        -1.87833       -0.02023       -0.06142
O         -4.08407       -0.33891        0.05703
C         -3.79784       -1.52281        0.34606
O         -2.56829       -1.87563        0.39560
C         -4.84813       -2.54045        0.66377
H         -4.87720       -2.69143        1.75370
H         -5.83060       -2.19240        0.32345
H         -4.59307       -3.50410        0.20286
H          4.73504       -1.32602        0.74321
C          4.61944       -2.74031       -0.83261
H          5.70130       -2.93466       -0.77858
H          4.10207       -3.53173       -0.27003
H          4.32983       -2.82989       -1.89150
C          5.00263       -0.27320       -1.10632
H          4.82240        0.73326       -0.70124
H          6.09093       -0.43942       -1.14173
H          4.62249       -0.28673       -2.14011
