45
Napthalene_H7_Int2_Sub4.log	Energy: -707416.5711240
C          0.56895        0.30026       -0.38567
C          1.62263       -0.62485       -0.69963
C          0.76153        1.67759       -0.53988
C          2.88464       -0.14325       -1.16815
C          1.46894       -2.03174       -0.55138
C          2.03540        2.11723       -1.00988
C         -0.33918        2.72914       -0.29147
C          3.05534        1.25258       -1.31170
C          3.92369       -1.06182       -1.46545
C          2.49342       -2.90127       -0.84629
H          0.50619       -2.41896       -0.20722
H          2.21340        3.18429       -1.13471
H          4.01548        1.63818       -1.66403
H          4.87963       -0.67018       -1.82338
C          3.73643       -2.41408       -1.30813
H          2.34164       -3.97676       -0.72841
H          4.54328       -3.11293       -1.54115
O         -0.41001       -0.77357        2.18743
C          0.53475       -0.32415        2.83314
O          1.42060        0.50403        2.35935
C          0.75190       -0.71115        4.25707
H          0.87224        0.19193        4.87169
H         -0.08622       -1.31677        4.61627
H          1.68884       -1.28350        4.33023
H          1.23660        0.67676        1.39833
Pd        -1.10290       -0.53819        0.24229
O         -3.13627       -1.45832        0.19331
C         -3.12432       -1.20299       -1.03171
O         -2.09793       -0.63100       -1.54137
C         -4.27606       -1.53116       -1.92854
H         -3.92139       -2.12258       -2.78451
H         -5.04625       -2.08175       -1.37614
H         -4.69833       -0.59786       -2.32951
C         -1.39245        2.59944       -1.40214
H         -2.19196        3.34398       -1.25574
H         -0.93542        2.77921       -2.38749
H         -1.84316        1.59817       -1.42646
C         -1.00096        2.54959        1.08091
H         -0.26593        2.64602        1.89565
H         -1.77001        3.32332        1.22910
H         -1.50082        1.57189        1.17538
C          0.20942        4.16034       -0.32905
H         -0.60603        4.86354       -0.10246
H          1.00372        4.32020        0.41691
H          0.60235        4.43295       -1.31957
