38
Napthalene_H7_Int2_Sub31.log	Energy: -668180.6423537
C          0.24848       -0.42698       -0.11595
C          1.22823        0.21886        0.70718
C          0.67246       -1.40446       -0.99604
C          2.61271       -0.12537        0.57907
C          0.87122        1.21648        1.65239
C          2.02841       -1.78232       -1.10395
H         -0.06139       -1.92954       -1.61421
C          3.00515       -1.17296       -0.33027
C          3.56490        0.58923        1.34705
C          1.81882        1.87096        2.40640
H         -0.18802        1.45303        1.77454
H          2.29536       -2.57956       -1.79807
N          4.33308       -1.52244       -0.41999
H          4.63030        0.39061        1.21116
C          3.18418        1.56500        2.24148
H          1.51220        2.63067        3.12931
H          3.94058        2.10308        2.81746
O         -1.35024        1.98100       -0.50613
C         -0.56713        2.45160       -1.33215
O          0.32554        1.75370       -1.97060
C         -0.56892        3.90738       -1.65233
H         -0.44119        4.05893       -2.73219
H         -1.49334        4.37201       -1.29390
H          0.29331        4.37022       -1.14736
H          0.34604        0.83155       -1.59397
Pd        -1.66754       -0.00509       -0.01991
O         -3.86619       -0.32489        0.23237
C         -3.56359       -1.51606        0.46946
O         -2.33506       -1.87208        0.42982
C         -4.59441       -2.54126        0.82729
H         -4.55822       -2.71623        1.91344
H         -5.59529       -2.18581        0.55493
H         -4.36906       -3.49444        0.33054
H          4.87524       -1.36097        0.41682
C          4.77246       -2.61885       -1.23298
H          5.86206       -2.72248       -1.14107
H          4.54806       -2.43182       -2.29575
H          4.30827       -3.58733       -0.95955
