36
Napthalene_H7_Int2_Sub25.log	Energy: -820214.9814190
C         -0.11289       -0.37569       -0.07248
C          0.80627        0.34240        0.76003
C          0.37172       -1.31761       -0.96099
C          2.21524        0.10347        0.64022
C          0.35526        1.29180        1.71450
C          1.75835       -1.56054       -1.07729
H         -0.32075       -1.89706       -1.57698
C          2.66374       -0.86739       -0.30900
C          3.10203        0.84030        1.46972
C          1.24053        1.98729        2.50412
H         -0.72000        1.45036        1.81892
H          2.11557       -2.30534       -1.78985
C          4.13224       -1.14476       -0.47953
H          4.17595        0.67368        1.39299
C          2.62620        1.76016        2.37505
H          0.87089        2.70770        3.23736
H          3.32886        2.31221        3.00354
O         -1.82830        1.94108       -0.47517
C         -1.08275        2.47027       -1.29950
O         -0.18448        1.82534       -1.98891
C         -1.13382        3.93523       -1.56060
H         -1.01702        4.13609       -2.63345
H         -2.07002        4.35413       -1.17737
H         -0.28417        4.40375       -1.03939
H         -0.12868        0.89324       -1.66718
Pd        -2.04530       -0.06527       -0.02422
O         -4.21488       -0.49714        0.16104
C         -3.86450       -1.67650        0.39518
O         -2.61708       -1.96751        0.38621
C         -4.85177       -2.75350        0.71254
H         -4.84734       -2.92813        1.79935
H         -5.85874       -2.44917        0.40335
H         -4.55853       -3.69240        0.22439
F          4.80704       -0.04597       -0.84937
F          4.36306       -2.07450       -1.40903
F          4.69663       -1.57738        0.65632
