33
Napthalene_H7_Int2_Sub26.log	Energy: -897140.9907620
C          0.21704       -0.49016       -0.17074
C          1.25022        0.05438        0.65856
C          0.55058       -1.42646       -1.13301
C          2.61386       -0.34824        0.46343
C          0.97222        0.99191        1.68853
C          1.88893       -1.83581       -1.33129
H         -0.23117       -1.87695       -1.75044
C          2.89091       -1.30331       -0.55733
C          3.62484        0.21005        1.28462
C          1.97471        1.51591        2.47138
H         -0.06698        1.28180        1.85686
H          2.13280       -2.57286       -2.09817
Cl         4.52570       -1.81553       -0.83656
H          4.65699       -0.10469        1.12403
C          3.31437        1.12379        2.26426
H          1.73197        2.22996        3.26179
H          4.10726        1.54142        2.88907
O         -1.23789        2.03099       -0.33065
C         -0.46762        2.52578       -1.15399
O          0.33237        1.83139       -1.91167
C         -0.37090        4.00122       -1.33236
H         -0.27257        4.25091       -2.39681
H         -1.24248        4.49288       -0.88797
H          0.54239        4.34718       -0.82325
H          0.29896        0.88087       -1.63754
Pd        -1.66442        0.03481       -0.00038
O         -3.86151       -0.16332        0.27163
C         -3.63838       -1.38809        0.40713
O         -2.43523       -1.81621        0.31165
C         -4.72813       -2.36807        0.70510
H         -4.69364       -2.62054        1.77597
H         -5.70645       -1.93125        0.47206
H         -4.56842       -3.29605        0.14011
