39
OneHPyrrolo23bpyridine_H11_Int2_Sub21.log	Energy: -679004.4292891
C          0.36171       -0.91147       -0.67438
C         -1.06006       -0.93393       -0.42834
C          0.62317       -2.04802       -1.42098
C         -1.57780       -2.11162       -1.03221
C         -1.97932       -0.10315        0.21694
H          1.56784       -2.39528       -1.83773
N         -0.53051       -2.76623       -1.62719
N         -2.83959       -2.50937       -1.02552
C         -3.32015       -0.48510        0.23483
H         -1.64122        0.83138        0.67104
H         -0.61831       -3.63990       -2.12747
C         -3.67983       -1.69554       -0.39682
C         -4.37690        0.37376        0.89493
H         -4.73264       -2.00413       -0.38222
O          3.10508       -0.64663        0.30571
C          3.02406       -1.59858        1.08600
O          1.89987       -2.14814        1.43719
C          4.24196       -2.20109        1.69880
H          4.16197       -2.13504        2.79380
H          4.29257       -3.26878        1.44104
H          5.13858       -1.67745        1.35230
H          1.17536       -1.75872        0.86526
Pd         1.54959        0.58631       -0.25302
O          2.23758        2.67712        0.01219
C          1.09118        3.00723       -0.36807
O          0.24248        2.09105       -0.65137
C          0.68567        4.43773       -0.52887
H         -0.34355        4.58212       -0.17398
H          1.38083        5.09283        0.00952
H          0.70714        4.69362       -1.59925
H         -5.33760       -0.15873        0.78256
C         -4.11506        0.54429        2.39073
H         -4.92037        1.12436        2.86842
H         -4.04618       -0.42994        2.89753
H         -3.16908        1.08073        2.56849
C         -4.51149        1.72608        0.19500
H         -4.74210        1.59978       -0.87330
H         -5.31204        2.32939        0.65167
H         -3.57462        2.30202        0.26496
