30
OneHPyrrolo23bpyridine_H9_Int2_Sub2.log	Energy: -893376.2244848
C          0.56585       -0.20149        0.03623
C          1.32897        0.48049        1.02072
C          1.26077       -1.06862       -0.81288
Cl         0.50286        1.56875        2.11075
N          2.62592        0.38033        1.19584
C          2.64986       -1.20326       -0.67215
H          0.71613       -1.64433       -1.56614
C          3.25095       -0.43996        0.36326
C          3.70142       -1.94226       -1.30297
N          4.59077       -0.70591        0.35365
C          4.86056       -1.60915       -0.64693
H          3.61512       -2.63675       -2.13527
H          5.25725       -0.29891        0.99478
H          5.87773       -1.95513       -0.81981
O         -1.49945        1.91685       -0.38314
C         -0.70717        2.66918       -0.94527
O          0.42849        2.27881       -1.45386
C         -0.97776        4.12859       -1.06509
H         -0.42123        4.63745       -0.26215
H         -0.61196        4.51305       -2.02555
H         -2.04759        4.32419       -0.93671
H          0.57270        1.32923       -1.21464
Pd        -1.39726       -0.12314       -0.07465
O         -3.48239       -0.85157       -0.08954
C         -2.99168       -1.99073        0.08715
O         -1.71888       -2.11510        0.14684
C         -3.84508       -3.20598        0.26098
H         -3.91442       -3.43741        1.33499
H         -4.85332       -3.02042       -0.12824
H         -3.38404       -4.06888       -0.23744
