39
OneHPyrrolo23bpyridine_H11_Int2_Sub5.log	Energy: -679008.1256273
C          0.60297        0.17027        0.08913
C          1.25688        1.36308       -0.39374
C          1.56294       -0.52648        0.81247
C          2.60861        1.31106        0.04471
C          0.88617        2.48498       -1.14099
C          1.42769       -1.80235        1.58607
N          2.75868        0.15884        0.77170
N          3.55959        2.19877       -0.19731
C          1.86768        3.43559       -1.40089
H         -0.14179        2.60767       -1.48934
H          3.63235       -0.13171        1.18915
C          3.17463        3.24831       -0.91744
H          1.63467        4.33406       -1.97582
H          3.94348        3.99974       -1.12902
O         -1.16341       -2.06067       -0.76685
C         -0.32588       -2.49710       -1.56078
O          0.75965       -1.86389       -1.88429
C         -0.49651       -3.83450       -2.19776
H         -0.21534       -3.78419       -3.25799
H          0.18690       -4.54546       -1.70794
H         -1.52842       -4.18098       -2.07901
H          0.83259       -1.04405       -1.29952
Pd        -1.33226       -0.15092       -0.00784
O         -3.50408        0.27908        0.15337
C         -3.15320        1.40477        0.57531
O         -1.90442        1.67410        0.66497
C         -4.14363        2.44058        1.00304
H         -3.83190        3.43121        0.64572
H         -5.14341        2.18759        0.63073
H         -4.16684        2.47704        2.10288
H          0.41800       -2.17891        1.35679
C          2.44907       -2.85439        1.15082
H          2.27337       -3.80676        1.67394
H          2.39908       -3.03850        0.06706
H          3.47966       -2.54213        1.38713
C          1.49149       -1.53786        3.09183
H          0.72485       -0.80918        3.39214
H          1.32939       -2.46738        3.65913
H          2.47377       -1.13369        3.38541
