33
OneHPyrrolo23bpyridine_H9_Int2_Sub22.log	Energy: -629704.5822128
C         -0.33927       -0.43907       -0.14639
C         -0.58575       -1.48467       -1.07105
C         -1.41475        0.10002        0.56661
H          0.25685       -1.93421       -1.60702
N         -1.78958       -1.98591       -1.33310
C         -2.69389       -0.41535        0.32312
H         -1.26295        0.90005        1.29787
C         -2.78742       -1.45202       -0.64591
C         -4.02187       -0.16473        0.81283
N         -4.10456       -1.80673       -0.73940
C         -4.83906       -1.03822        0.13388
C         -4.41935        0.83455        1.84452
H         -4.45584       -2.53008       -1.35037
H         -5.91705       -1.16797        0.21664
O          0.99289        2.11102        0.30868
C          0.37718        2.72939       -0.56005
O         -0.21868        2.15470       -1.56703
C          0.25295        4.21325       -0.52385
H          0.55044        4.63128       -1.49580
H         -0.80269        4.47930       -0.36381
H          0.87180        4.62419        0.28009
H         -0.19021        1.17501       -1.42257
Pd         1.51484        0.11016        0.18119
O          3.71689       -0.06936        0.49162
C          3.54417       -1.29503        0.30664
O          2.36621       -1.72882        0.05295
C          4.66614       -2.28038        0.39989
H          4.56191       -3.04877       -0.37761
H          5.63119       -1.76659        0.31603
H          4.61301       -2.78529        1.37663
H         -3.91392        0.64612        2.80594
H         -5.50307        0.81070        2.02766
H         -4.15603        1.86057        1.53804
