42
OneHPyrrolo23bpyridine_H9_deriv1_Int2_Sub20.log	Energy: -991971.7857093
C          0.29128       -0.08977       -0.00358
C         -0.50138       -0.93763       -0.81906
C         -0.38540        0.73732        0.89472
H          0.00209       -1.61916       -1.51274
N         -1.82791       -0.98851       -0.80881
C         -1.78391        0.71710        0.94726
Cl         0.46952        1.81661        1.95362
C         -2.43341       -0.18083        0.05325
C         -2.80187        1.38021        1.68961
N         -3.79266       -0.06399        0.24576
C         -3.99410        0.87627        1.23203
H         -2.66915        2.13122        2.46370
C         -4.82489       -0.83323       -0.48148
H         -4.99827        1.13336        1.55489
O          2.63546        1.70244       -0.46575
C          1.97612        2.52135       -1.10304
O          0.80305        2.27064       -1.61177
C          2.47069        3.90883       -1.32339
H          2.21288        4.25284       -2.33325
H          1.95969        4.56693       -0.60312
H          3.55082        3.95535       -1.14960
H          0.50892        1.37656       -1.30181
Pd         2.25062       -0.28536       -0.07636
O          4.21682       -1.28744       -0.01176
C          3.57271       -2.33967        0.20722
O          2.29420       -2.28574        0.24846
C          4.24818       -3.65091        0.45018
H          3.69091       -4.46069       -0.03918
H          5.28416       -3.61610        0.09257
H          4.24917       -3.85275        1.53231
C         -6.21032       -0.42488        0.00857
H         -6.96209       -1.00473       -0.54482
H         -6.34771       -0.63846        1.07918
H         -6.41289        0.64148       -0.17223
C         -4.70351       -0.52780       -1.97637
H         -3.71222       -0.81850       -2.34786
H         -5.46859       -1.08613       -2.53617
H         -4.85202        0.54664       -2.16312
C         -4.60770       -2.32417       -0.21180
H         -5.37139       -2.91563       -0.73856
H         -3.61528       -2.63745       -0.56140
H         -4.68647       -2.53572        0.86529
