33
OneHPyrrolo23bpyridine_H11_deriv1_Int2_Sub30.log	Energy: -918029.7369284
C          0.15355       -0.55808       -0.76587
C          1.44382       -0.49292       -0.12147
C          0.35682       -1.34296       -1.88683
C          2.36493       -1.24633       -0.90679
C          2.00270        0.10882        1.01037
H         -0.36892       -1.66980       -2.62943
N          1.66848       -1.74673       -1.97074
N          3.65543       -1.43144       -0.68234
C          3.35306       -0.07235        1.27828
Cl         1.03735        1.07900        2.06948
H          2.08295       -2.31412       -2.69748
C          4.14804       -0.85178        0.41037
H          3.79482        0.39003        2.16153
C          5.60124       -1.07726        0.70350
O         -1.17533        2.03550       -0.15189
C         -0.34609        2.66095       -0.81237
O          0.47445        2.10986       -1.65626
C         -0.20043        4.13577       -0.65545
H          0.59331        4.31212        0.08787
H          0.10637        4.60073       -1.60037
H         -1.13445        4.56779       -0.27989
H          0.37457        1.11685       -1.59453
Pd        -1.60392        0.02377       -0.10366
O         -3.67211       -0.12640        0.63954
C         -3.53158       -1.36600        0.51800
O         -2.42600       -1.82224        0.06305
C         -4.60275       -2.32950        0.91786
H         -4.36923       -2.71990        1.92037
H         -5.57447       -1.82237        0.95321
H         -4.62843       -3.18042        0.22457
H          5.75527       -2.09066        1.10891
H          5.99061       -0.35562        1.43410
H          6.18759       -1.00803       -0.22342
