34
OneHPyrrolo23bpyridine_H9_deriv1_Int2_Sub32.log	Energy: -965194.0904100
C          0.07365       -0.34526       -0.36616
C         -0.28050       -1.14915       -1.47456
C         -0.96345        0.09825        0.46442
H          0.51270       -1.53056       -2.12576
N         -1.52637       -1.50115       -1.79601
C         -2.28443       -0.25018        0.17569
Cl        -0.64948        1.09464        1.85319
C         -2.46320       -1.05600       -0.98383
C         -3.57377       -0.01282        0.74863
N         -3.81251       -1.29133       -1.10406
C         -4.46589       -0.67247       -0.07139
H         -3.79709        0.56174        1.64190
H         -4.25123       -1.84484       -1.82716
O         -5.78767       -0.80350       -0.03215
O          1.86824        2.00616       -0.01137
C          1.14647        2.74660       -0.67629
O          0.21229        2.32238       -1.47915
C          1.27175        4.22857       -0.58971
H          1.12911        4.68471       -1.57773
H          0.47062        4.59710        0.07007
H          2.24261        4.49948       -0.16172
H          0.12347        1.34069       -1.37221
Pd         1.98361       -0.05277        0.01853
O          4.09599       -0.54585        0.43605
C          3.73744       -1.74402        0.35782
O          2.51358       -2.00879        0.09294
C          4.68632       -2.87560        0.59158
H          4.48815       -3.68897       -0.11903
H          5.72217       -2.52578        0.50789
H          4.52210       -3.27103        1.60567
C         -6.44101       -0.16827        1.04035
H         -6.08981       -0.56406        2.00803
H         -6.27332        0.92163        1.01634
H         -7.51170       -0.37561        0.92756
