30
OneHPyrrolo23bpyridine_H9_deriv1_Int2_Sub18.log	Energy: -1181662.3139122
C         -0.11201       -0.19594       -0.08327
C         -0.77192       -1.09098       -0.96628
C         -0.91031        0.52847        0.80464
H         -0.16647       -1.69296       -1.65197
N         -2.08590       -1.27552       -1.02950
C         -2.30158        0.36623        0.78535
Cl        -0.22485        1.64797        1.93895
C         -2.79091       -0.56102       -0.17445
C         -3.42263        0.89638        1.49515
N         -4.15847       -0.56923       -0.03211
C         -4.53936        0.29974        0.96728
H         -3.40304        1.62781        2.29891
Cl        -5.20820       -1.51766       -0.94236
H         -5.59170        0.41489        1.21589
O          2.06728        1.83461       -0.35398
C          1.37094        2.60901       -1.00740
O          0.26259        2.26306       -1.59953
C          1.73649        4.04521       -1.15170
H          1.51074        4.39895       -2.16588
H          1.11696        4.62345       -0.44826
H          2.79314        4.19103       -0.90421
H          0.04523        1.33238       -1.34284
Pd         1.85919       -0.19474       -0.05847
O          3.90533       -0.99667        0.07561
C          3.36281       -2.11707        0.22149
O          2.08451       -2.19092        0.19680
C          4.15494       -3.36300        0.45082
H          3.70786       -4.20237       -0.09810
H          5.19844       -3.20965        0.15104
H          4.12241       -3.61008        1.52303
