39
OneHPyrrolo23bpyridine_H9_deriv1_Int2_Sub29.log	Energy: -967329.0078317
C          0.30421       -0.26496       -0.30315
C         -0.16914       -1.02624       -1.40212
C         -0.65023        0.23574        0.58759
H          0.56113       -1.45226       -2.09823
N         -1.44817       -1.28329       -1.66208
C         -2.00848       -0.01176        0.36414
Cl        -0.19110        1.17996        1.97159
C         -2.30935       -0.78282       -0.79269
C         -3.25122        0.30006        0.99602
N         -3.67094       -0.91697       -0.84145
C         -4.24519       -0.27058        0.23229
H         -3.39760        0.87403        1.90765
H         -4.15721       -1.42986       -1.56373
C         -5.72869       -0.26109        0.43434
O          2.30100        1.93097        0.01039
C          1.60444        2.74726       -0.58945
O          0.59455        2.42332       -1.34617
C          1.85322        4.21106       -0.47012
H          1.69402        4.70787       -1.43577
H          1.12118        4.62049        0.24364
H          2.86457        4.39106       -0.09085
H          0.43299        1.44929       -1.25788
Pd         2.25020       -0.13028       -0.02378
O          4.33649       -0.79991        0.25355
C          3.87989       -1.96324        0.16265
O          2.62557       -2.12266       -0.03699
C          4.74704       -3.17242        0.30779
H          4.44290       -3.94518       -0.41063
H          5.80086       -2.90237        0.17035
H          4.61171       -3.58510        1.31927
H         -5.90045        0.32168        1.35357
C         -6.44969        0.44422       -0.71613
H         -7.53179        0.49841       -0.52208
H         -6.07187        1.46751       -0.85555
H         -6.31373       -0.09595       -1.66729
C         -6.27472       -1.67263        0.65906
H         -5.77033       -2.16498        1.50306
H         -7.35449       -1.64287        0.87064
H         -6.13223       -2.30557       -0.23201
