46
OneHPyrrolo23bpyridine_H9_Int2_Sub3.log	Energy: -752205.4689552
C          0.73019        0.44679       -0.39501
C          0.93677       -0.91685       -0.03606
C          1.79326        1.19224       -0.91478
C         -0.17865       -1.76344        0.52519
N          2.11771       -1.52226       -0.18152
C          3.03514        0.56782       -1.07803
H          1.65505        2.24162       -1.19208
C          3.10053       -0.79754       -0.68486
C          4.33791        0.92599       -1.55517
N          4.37821       -1.23100       -0.91571
C          5.11770       -0.19769       -1.43934
H          4.66044        1.89024       -1.94118
H          4.70025       -2.17033       -0.73011
H          6.16509       -0.34205       -1.69752
O         -0.53250        2.64240        1.11058
C          0.20627        2.51910        2.08733
O          0.99689        1.50160        2.27611
C          0.25904        3.55625        3.15681
H          0.06691        3.08460        4.13119
H          1.27205        3.98314        3.19633
H         -0.47733        4.34142        2.95829
H          0.96884        0.92475        1.46686
Pd        -1.06559        1.24500       -0.31744
O         -3.22529        1.56108       -0.80847
C         -3.09171        0.59072       -1.58695
O         -1.94993        0.01936       -1.68611
C         -4.22500        0.06300       -2.40970
H         -4.39199       -0.99557       -2.16245
H         -5.13615        0.64294       -2.22285
H         -3.95752        0.11041       -3.47522
H         -1.04282       -1.09744        0.69892
C          0.20580       -2.40683        1.86023
H          0.47332       -1.62237        2.58895
H          1.11620       -3.00947        1.70226
C         -0.91857       -3.27866        2.40652
H         -0.60477       -3.75670        3.34906
H         -1.78523       -2.63951        2.65693
C         -1.35343       -4.33217        1.39338
H         -2.18969       -4.92833        1.79419
H         -0.51903       -5.03747        1.22639
C         -1.73916       -3.69459        0.06320
H         -2.64021       -3.06990        0.20587
H         -2.01441       -4.47030       -0.67016
C         -0.61764       -2.82477       -0.49025
H          0.26050       -3.44684       -0.73769
H         -0.93763       -2.32198       -1.41512
