42
OneHPyrrolo23bpyridine_H9_Int2_Sub20.log	Energy: -703653.6567529
C          0.34414       -0.63172       -0.27893
C          0.34337       -1.81437       -1.05833
C         -0.87138       -0.13923        0.20360
H          1.29517       -2.22647       -1.40955
N         -0.75442       -2.48687       -1.38960
C         -2.05115       -0.82375       -0.12347
H         -0.89531        0.76222        0.82139
C         -1.89043       -1.98696       -0.92799
C         -3.46311       -0.67028        0.12956
N         -3.13387       -2.50968       -1.14719
C         -4.06894       -1.72470       -0.51682
C         -4.13777        0.42395        0.92579
H         -3.31083       -3.34605       -1.68484
H         -5.12498       -1.97783       -0.57559
O          1.26030        2.10661        0.04853
C          0.67407        2.55315       -0.93800
O          0.31981        1.82061       -1.95665
C          0.29077        3.98877       -1.03541
H          0.50223        4.36838       -2.04388
H         -0.79563        4.06933       -0.87357
H          0.81940        4.57279       -0.27507
H          0.48046        0.87222       -1.72258
Pd         2.06068        0.19915        0.17796
O          4.21789        0.36136        0.72657
C          4.22921       -0.88777        0.65340
O          3.15450       -1.50428        0.32845
C          5.45202       -1.69295        0.96105
H          5.53945       -2.53311        0.25941
H          6.34478       -1.05740        0.92424
H          5.35310       -2.11338        1.97357
C         -5.65327        0.22090        0.94194
H         -6.13945        1.01998        1.52238
H         -6.07304        0.24341       -0.07585
H         -5.92351       -0.74052        1.40559
C         -3.62100        0.40363        2.37152
H         -2.53187        0.54823        2.41756
H         -4.09391        1.20324        2.96421
H         -3.84702       -0.56040        2.85157
C         -3.83138        1.78616        0.28494
H         -4.30346        2.60026        0.85824
H         -2.74925        1.98141        0.24969
H         -4.21057        1.82525       -0.74759
