46
OneHPyrrolo23bpyridine_H9_Int2_Sub11.log	Energy: -752204.6367333
C          0.02732        1.01822        0.26872
C          0.07405        2.36960        0.69310
C         -1.18384        0.46506       -0.18316
H          1.02941        2.79472        1.02028
N         -0.97176        3.18728        0.72089
C         -2.30617        1.32194       -0.17411
C         -1.26318       -0.96162       -0.66211
C         -2.10464        2.65121        0.29284
C         -3.69289        1.22951       -0.53810
N         -3.30333        3.30745        0.21798
C         -4.25377        2.45652       -0.28359
H         -4.22306        0.37261       -0.94441
H         -3.43287        4.27409        0.48127
H         -5.27955        2.79007       -0.42795
O          1.23193       -1.39257        1.56741
C          0.48998       -1.33068        2.54717
O         -0.27018       -0.30942        2.81817
C          0.37817       -2.46975        3.50222
H          0.21154       -2.10246        4.52255
H         -0.49685       -3.07332        3.21299
H          1.27433       -3.09697        3.44471
H         -0.21381        0.33966        2.06581
Pd         1.74547        0.05408        0.17762
O          3.83398       -0.38548       -0.48145
C          3.71082        0.62665       -1.20729
O          2.61376        1.28660       -1.18153
C          4.79921        1.08724       -2.12543
H          4.94309        2.17142       -2.02074
H          5.73085        0.55036       -1.91178
H          4.49545        0.89489       -3.16547
H         -0.26000       -1.39899       -0.51587
C         -1.55380       -1.05496       -2.16535
H         -0.80641       -0.46070       -2.71450
H         -2.53523       -0.59924       -2.38217
C         -1.54082       -2.50490       -2.63594
H         -1.78618       -2.55776       -3.70900
H         -0.51683       -2.90698       -2.53198
C         -2.50231       -3.36976       -1.82734
H         -2.44692       -4.41928       -2.15890
H         -3.53890       -3.03781       -2.02049
C         -2.21998       -3.26957       -0.33168
H         -1.22387       -3.70022       -0.12087
H         -2.94714       -3.87083        0.23835
C         -2.24757       -1.82081        0.14092
H         -3.26849       -1.41840        0.03351
H         -2.01411       -1.75230        1.21614
