35
OneHPyrrolo23bpyridine_H11_deriv1_Int2_Sub23.log	Energy: -952734.6413904
C          0.19033       -0.64538        0.92658
C         -1.18799       -0.68508        0.50008
C          0.24534       -1.47511        2.03678
C         -1.89361       -1.53407        1.39900
C         -1.95833       -0.10987       -0.51270
H          1.11245       -1.74518        2.63719
N         -0.98713       -1.99788        2.32068
N         -3.18000       -1.82358        1.36276
C         -3.33381       -0.38804       -0.59547
Cl        -1.23957        0.94374       -1.69289
H         -1.22414       -2.61248        3.08690
C         -3.87554       -1.26484        0.38297
N         -4.11454        0.18143       -1.57034
H         -4.94137       -1.50615        0.34432
O          1.17770        2.06532        0.20227
C          0.42357        2.59608        1.01841
O         -0.20436        1.95012        1.95355
C          0.14669        4.05982        0.96075
H         -0.78001        4.20025        0.38198
H         -0.01595        4.46492        1.96717
H          0.96432        4.57749        0.44744
H         -0.04281        0.96855        1.82566
Pd         1.76025        0.10136        0.00711
O          3.68746        0.14738       -1.06893
C          3.67014       -1.10162       -0.96752
O          2.69547       -1.66175       -0.35676
C          4.73777       -1.96112       -1.56637
H          4.37693       -2.35134       -2.53048
H          5.64565       -1.37123       -1.74095
H          4.94634       -2.81967       -0.91461
H         -3.59662        0.60049       -2.33130
C         -5.45258       -0.25212       -1.84479
H         -5.83955        0.30910       -2.70564
H         -6.12665       -0.04839       -0.99552
H         -5.52778       -1.33247       -2.07905
