34
OneHPyrrolo23bpyridine_H11_Int2_Sub24.log	Energy: -676868.9557496
C          0.01517       -0.87155       -0.62209
C         -1.38401       -0.73267       -0.30671
C          0.11141       -2.03613       -1.37025
C         -2.05633       -1.84739       -0.86710
C         -2.16269        0.21222        0.37843
H          0.99039       -2.48841       -1.82778
N         -1.12102       -2.62037       -1.50919
N         -3.35541       -2.10147       -0.78924
C         -3.52865       -0.03598        0.45944
H         -1.69489        1.10604        0.79071
H         -1.33180       -3.48257       -1.99212
C         -4.07041       -1.20535       -0.13263
O         -4.42599        0.76975        1.07024
H         -5.14972       -1.36877       -0.04363
O          2.81370       -0.94628        0.19918
C          2.66012       -1.87871        0.99235
O          1.49904       -2.27804        1.41800
C          3.82662       -2.63309        1.53274
H          3.81661       -2.57155        2.63078
H          3.73023       -3.69567        1.26661
H          4.76034       -2.22043        1.13769
H          0.79619       -1.80219        0.88491
Pd         1.39313        0.47303       -0.26775
O          2.34652        2.46264       -0.03779
C          1.22996        2.93395       -0.35121
O          0.25874        2.13211       -0.58334
C          0.99887        4.40495       -0.49328
H          0.00294        4.67260       -0.11625
H          1.78098        4.96491        0.03324
H          1.03221        4.66580       -1.56225
C         -3.95491        1.95068        1.65167
H         -3.22932        1.74978        2.46076
H         -3.47382        2.61129        0.90805
H         -4.82614        2.46585        2.07621
