35
OneHPyrrolo23bpyridine_H9_Int2_Sub23.log	Energy: -664407.4593172
C         -0.13610       -0.49526       -0.25463
C         -0.29019       -1.60187       -1.12734
C         -1.27342        0.05937        0.33865
H          0.60030       -2.06627       -1.56423
N         -1.46082       -2.13743       -1.45852
C         -2.51883       -0.50440        0.03658
H         -1.19589        0.91656        1.01331
C         -2.52206       -1.58751       -0.88612
C         -3.89099       -0.24864        0.38803
N         -3.81910       -1.95402       -1.09430
C         -4.64334       -1.16361       -0.31764
N         -4.34357        0.76398        1.23799
H         -4.10623       -2.69597       -1.71575
H         -5.72321       -1.29809       -0.33063
O          1.06860        2.11599        0.15354
C          0.49766        2.66407       -0.79019
O          0.02085        2.01697       -1.81620
C          0.28618        4.13768       -0.82600
H          0.56397        4.53055       -1.81356
H         -0.78592        4.34128       -0.68128
H          0.86716        4.62173       -0.03446
H          0.08015        1.04764       -1.62168
Pd         1.67248        0.13447        0.16642
O          3.85396        0.05064        0.63323
C          3.73410       -1.18804        0.50162
O          2.59109       -1.67640        0.19334
C          4.87873       -2.12660        0.72028
H          4.85584       -2.93264       -0.02513
H          5.82977       -1.58240        0.67941
H          4.77259       -2.58870        1.71372
H         -5.34748        0.88577        1.15914
C         -3.92916        0.69036        2.62434
H         -4.30230        1.57127        3.16761
H         -2.83195        0.70550        2.69373
H         -4.27791       -0.22063        3.15135
