33
OneHPyrrolo23bpyridine_H9_deriv1_Int2_Sub9.log	Energy: -1104771.4448548
C         -0.38446       -0.56074        0.50873
C         -0.32434       -1.57857        1.49416
C          0.81602       -0.16739       -0.08984
H         -1.25793       -1.92237        1.95176
N          0.78754       -2.17232        1.91048
C          2.02065       -0.76420        0.31443
Cl         0.82827        1.05238       -1.31783
C          1.89749       -1.75834        1.32402
C          3.42082       -0.67728        0.00406
N          3.15542       -2.23232        1.59518
C          4.06334       -1.58963        0.80917
C          4.12565        0.20099       -0.96920
H          3.34923       -2.95585        2.27419
H          5.12626       -1.81278        0.86172
O         -1.78472        2.07590        0.25060
C         -1.07705        2.62212        1.09451
O         -0.35286        1.97153        1.96202
C         -0.96675        4.10445        1.17191
H         -0.90270        4.43239        2.21723
H         -0.03156        4.39711        0.66876
H         -1.81247        4.57204        0.65694
H         -0.39466        1.00785        1.74620
Pd        -2.16426        0.07257       -0.05598
O         -4.23990       -0.03909       -0.77687
C         -4.06836       -1.27997       -0.81541
O         -2.93963       -1.75749       -0.44275
C         -5.12343       -2.21622       -1.30732
H         -5.13322       -3.13002       -0.69861
H         -6.10341       -1.72453       -1.29288
H         -4.88352       -2.50613       -2.34181
F          3.72271        0.00104       -2.22648
F          5.44659       -0.03122       -0.93502
F          3.94825        1.49997       -0.70341
