35
OneHPyrrolo23bpyridine_H11_deriv1_Int2_Sub15.log	Energy: -952710.7051484
C         -0.37363       -0.38719        0.36601
C         -1.44446        0.19538       -0.40685
C         -0.98357       -1.34781        1.15374
C         -2.65631       -0.45856       -0.03709
C         -1.59541        1.20959       -1.35892
H         -0.55253       -2.04338        1.87123
N         -2.33799       -1.39196        0.91690
N         -3.88050       -0.21489       -0.47738
C         -2.86465        1.48575       -1.85698
Cl        -0.23295        2.12046       -1.91066
N         -3.21955       -2.24843        1.54175
C         -3.96471        0.75091       -1.38531
H         -3.00135        2.26787       -2.60429
H         -4.96342        0.97384       -1.77515
O          1.62205        1.78879        0.78782
C          0.83673        2.42247        1.49297
O         -0.25500        1.92406        1.99108
C          1.07794        3.86027        1.80249
H          0.51825        4.45707        1.06483
H          0.70125        4.11224        2.80148
H          2.14423        4.09180        1.70562
H         -0.37482        0.99825        1.63052
Pd         1.57039       -0.16795        0.15496
O          3.65361       -0.68864       -0.32729
C          3.20806       -1.82074       -0.62960
O          1.95670       -2.04991       -0.49227
C          4.08690       -2.90028       -1.17500
H          3.98629       -2.91672       -2.27116
H          5.13450       -2.70130       -0.91887
H          3.76845       -3.87959       -0.79433
H         -4.01476       -1.69264        1.85256
C         -3.66658       -3.32855        0.67555
H         -4.37052       -3.95230        1.24504
H         -2.80535       -3.95532        0.40246
H         -4.16236       -2.97668       -0.24627
