32
Oxazole_H6_Int2_Sub5.log	Energy: -595118.0160041
C          0.15976       -0.98373       -0.48253
C         -0.85275       -1.83577       -0.11966
N          1.07402       -1.69778       -1.25114
O         -0.57078       -3.05509       -0.67039
C         -2.11502       -1.69374        0.65684
C          0.58888       -2.88986       -1.32532
H          0.99848       -3.75995       -1.83666
O          2.33657        0.83612       -0.16308
C          2.99784        0.03996        0.50240
O          2.46952       -0.86739        1.27574
C          4.48513        0.04231        0.46129
H          4.80106       -0.77659       -0.20397
H          4.84998        0.99342        0.05980
H          4.89839       -0.15565        1.45859
H          1.49701       -0.88915        1.09827
Pd         0.28566        0.93625       -0.17681
O         -0.32473        3.04889        0.09597
C         -1.50018        2.62983        0.00327
O         -1.70078        1.37336       -0.15027
C         -2.67968        3.54805        0.03673
H         -3.03126        3.70956       -0.99387
H         -3.50207        3.08911        0.60137
H         -2.39669        4.51398        0.47162
H         -2.06625       -0.68940        1.10419
C         -3.33136       -1.72887       -0.27043
H         -4.26052       -1.60739        0.30761
H         -3.27511       -0.91400       -1.00580
H         -3.38888       -2.68744       -0.80981
C         -2.21048       -2.73943        1.76729
H         -1.35408       -2.67385        2.45566
H         -3.13096       -2.59773        2.35360
H         -2.22890       -3.75724        1.34781
