32
Oxazole_H7_Int2_Sub13.log	Energy: -595121.2139637
C          0.35974       -0.75843        0.20808
C          0.81642       -1.69026        1.10257
O          1.44853       -0.42120       -0.56361
H          0.24900       -2.20481        1.87564
N          2.16088       -1.92556        0.89028
C          2.48237       -1.15637       -0.09923
C          3.81236       -0.97132       -0.75069
O         -0.36012        1.91508       -0.36570
C          0.51706        2.37543        0.36633
O          1.00492        1.75101        1.40080
C          1.11889        3.71165        0.10389
H          0.50406        4.26905       -0.61014
H          1.23771        4.26595        1.04416
H          2.12378        3.55597       -0.31903
H          0.64819        0.82550        1.41884
Pd        -1.33847        0.12298       -0.11232
O         -3.47813        0.48065       -0.36371
C         -3.62784       -0.74643       -0.14669
O         -2.59089       -1.45506        0.09772
C         -4.96660       -1.40646       -0.19269
H         -5.07329       -1.92124       -1.15985
H         -5.04320       -2.16374        0.59863
H         -5.76184       -0.65753       -0.09779
H          3.71115       -1.33542       -1.79047
C          4.18061        0.51238       -0.81412
H          5.14706        0.64816       -1.32208
H          3.42157        1.08680       -1.36520
H          4.26510        0.93513        0.19992
C          4.87248       -1.80383       -0.04464
H          4.58821       -2.86433       -0.01211
H          5.83866       -1.71099       -0.56221
H          4.99984       -1.46887        0.99578
