48
Oxazole_H7_deriv1_Int2_Sub3.log	Energy: -742275.5215489
C         -0.50584       -0.04599       -0.39788
C         -0.21196        1.27145       -0.15029
O         -1.78884       -0.06780       -0.90370
C          1.05506        1.86204        0.36956
N         -1.30404        2.04931       -0.50273
C         -2.19588        1.21753       -0.93523
C         -3.58062        1.49711       -1.41704
O         -1.15945       -2.61100        0.61321
C         -1.90598       -2.13826        1.47271
O         -1.79875       -0.93111        1.94739
C         -3.03326       -2.93343        2.03419
H         -2.91916       -3.98989        1.77073
H         -3.08522       -2.79922        3.12277
H         -3.97187       -2.54642        1.60772
H         -1.11665       -0.43443        1.41661
Pd         0.49376       -1.69541       -0.19767
O          2.15611       -3.13050       -0.23200
C          2.83524       -2.20561       -0.73742
O          2.27913       -1.06762       -0.92533
C          4.25854       -2.39314       -1.15007
H          4.29652       -2.51911       -2.24295
H          4.84548       -1.50012       -0.89736
H          4.67795       -3.28648       -0.67238
H         -3.61683        1.18756       -2.47840
C         -4.59812        0.64800       -0.65216
H         -5.61474        0.82908       -1.03202
H         -4.37949       -0.42469       -0.75745
H         -4.58426        0.89876        0.42062
C         -3.88481        2.98560       -1.33182
H         -3.14547        3.57525       -1.89076
H         -4.88553        3.19526       -1.73753
H         -3.85226        3.32893       -0.28691
H          1.69328        1.02159        0.69438
C          0.80276        2.78465        1.56608
H          0.31103        2.21814        2.37497
H          0.08669        3.56485        1.25510
C          2.09046        3.42525        2.06997
H          1.87195        4.10929        2.90626
H          2.75228        2.63891        2.47722
C          2.82247        4.16318        0.95427
H          3.76601        4.59108        1.33086
H          2.20443        5.01606        0.61949
C          3.08838        3.24372       -0.23250
H          3.78949        2.44634        0.07501
H          3.58670        3.79701       -1.04524
C          1.80423        2.60377       -0.74510
H          1.13460        3.37882       -1.15833
H          2.02064        1.89620       -1.56051
