26
Oxazole_H7_Int2_Sub14.log	Energy: -545821.8867954
C          0.77387       -0.88769        0.17491
C          1.14781       -1.83887        1.08768
O          1.84441       -0.75334       -0.68018
H          0.56443       -2.22733        1.92027
N          2.42059       -2.29017        0.80229
C          2.78234       -1.62373       -0.24624
C          4.05538       -1.70439       -0.99605
O          0.30619        1.84862       -0.45193
C          1.24694        2.23901        0.24133
O          1.73274        1.57421        1.25014
C          1.92682        3.53368       -0.04069
H          1.34174        4.11810       -0.75799
H          2.07651        4.09068        0.89400
H          2.92176        3.32017       -0.46063
H          1.30259        0.67919        1.28682
Pd        -0.82919        0.16836       -0.11708
O         -2.92718        0.73915       -0.31367
C         -3.19550       -0.45948       -0.05493
O         -2.22994       -1.26518        0.18002
C         -4.59618       -0.97714       -0.04213
H         -4.79349       -1.48370       -0.99939
H         -4.72030       -1.71675        0.75968
H         -5.30514       -0.14868        0.07390
H          3.87998       -2.00903       -2.03928
H          4.70441       -2.44208       -0.51034
H          4.56737       -0.72990       -1.01564
