39
Oxazole_H7_Int2_Sub11.log	Energy: -668321.0806735
C         -0.37543       -0.74255        0.29259
C          0.05199       -1.66266        1.21344
O          0.74859       -0.37215       -0.40998
H         -0.54693       -2.19567        1.94929
N          1.41384       -1.85731        1.08584
C          1.77325       -1.07666        0.11843
C          3.13234       -0.83976       -0.43928
O         -1.11561        1.91692       -0.30281
C         -0.29050        2.38777        0.48114
O          0.14731        1.76628        1.53957
C          0.30341        3.73493        0.25983
H         -0.28154        4.28847       -0.48178
H          0.36516        4.28385        1.20863
H          1.33099        3.59645       -0.11160
H         -0.19179        0.83403        1.53219
Pd        -2.07043        0.10248       -0.12638
O         -4.19733        0.41789       -0.50914
C         -4.33374       -0.81448       -0.31433
O         -3.29945       -1.50385       -0.01111
C         -5.65216       -1.50185       -0.45381
H         -5.69336       -1.98834       -1.44048
H         -5.75522       -2.28417        0.30953
H         -6.46856       -0.77324       -0.38278
H          3.11492       -1.16460       -1.49822
C          4.18555       -1.66227        0.29947
H          3.92351       -2.72965        0.25044
H          4.15121       -1.39423        1.36934
C          5.58018       -1.40845       -0.25945
H          6.32407       -1.98690        0.31122
H          5.63113       -1.78049       -1.29899
C          5.93226        0.07531       -0.24123
H          6.92954        0.24108       -0.67973
H          5.99169        0.42030        0.80704
C          4.88462        0.90102       -0.97995
H          4.90116        0.63393       -2.05214
H          5.12874        1.97439       -0.92532
C          3.48540        0.65536       -0.42837
H          3.42240        1.02202        0.61237
H          2.73491        1.21490       -1.00929
