32
Oxazole_H7_Int2_Sub5.log	Energy: -595119.0951949
C          0.86346       -0.31595       -0.61511
C          1.41616       -1.49781       -0.18332
O          1.70668        0.17248       -1.59016
C          0.89739       -2.45776        0.84096
N          2.58340       -1.73523       -0.89147
C          2.69338       -0.73058       -1.69221
H          3.47664       -0.53165       -2.42297
O          0.19512        2.40122       -0.02548
C          1.25541        2.59628        0.57263
O          1.97995        1.64999        1.09474
C          1.80555        3.97070        0.73577
H          1.06185        4.71380        0.43085
H          2.11435        4.12756        1.77826
H          2.70528        4.06419        0.10870
H          1.60054        0.76783        0.82787
Pd        -0.79263        0.60833       -0.19468
O         -2.91358        0.96007        0.22159
C         -3.07305       -0.26871        0.02613
O         -2.04775       -0.98150       -0.25687
C         -4.41577       -0.91925        0.08614
H         -4.77613       -1.08203       -0.94116
H         -4.33819       -1.90117        0.57149
H         -5.12656       -0.27435        0.61628
H          0.03805       -1.96636        1.32691
C          0.38812       -3.72716        0.15846
H          0.01511       -4.44820        0.90265
H         -0.43242       -3.48953       -0.53388
H          1.19794       -4.20836       -0.41183
C          1.96265       -2.76510        1.89057
H          2.28099       -1.85353        2.42033
H          1.58334       -3.47874        2.63798
H          2.85303       -3.20232        1.41365
