26
Oxazole_H6_Int2_Sub14.log	Energy: -545820.2152501
C          0.78841       -0.87230       -0.02240
C          0.81964       -2.20116        0.28451
N          2.09041       -0.46550       -0.27780
O          2.11523       -2.61686        0.21670
H          0.06376       -2.93688        0.53923
C          2.82252       -1.52450       -0.12413
C          4.28858       -1.66332       -0.27439
O          0.34992        1.86668       -0.59150
C          1.18475        2.29983        0.20161
O          1.34284        1.82415        1.40671
C          2.10619        3.40650       -0.16367
H          3.05223        2.93943       -0.48064
H          1.69418        3.98091       -1.00008
H          2.31299        4.04756        0.70218
H          0.79802        1.00829        1.47867
Pd        -0.80651        0.22379       -0.16833
O         -2.96268        0.75377       -0.20681
C         -3.16850       -0.45362        0.05018
O         -2.16569       -1.23628        0.20474
C         -4.54747       -1.02246        0.15649
H         -4.78032       -1.56308       -0.77371
H         -4.59753       -1.74441        0.98244
H         -5.27989       -0.21835        0.29486
H          4.53700       -2.39891       -1.05480
H          4.75249       -2.00494        0.66372
H          4.71206       -0.69122       -0.55178
