35
Oxazole_H7_deriv1_Int2_Sub6.log	Energy: -619775.5062108
C          0.36654       -0.64440        0.02037
C          0.80565       -1.70254        0.77846
O          1.45954       -0.20728       -0.69949
C          0.03699       -2.55308        1.72343
N          2.15444       -1.90485        0.52958
C          2.48380       -1.00605       -0.34052
C          3.81887       -0.74267       -0.95450
O         -0.35754        2.08080       -0.19983
C          0.51862        2.43455        0.59122
O          1.01223        1.66777        1.52077
C          1.11005        3.79959        0.52649
H          0.48801        4.45208       -0.09474
H          1.22978        4.20959        1.53794
H          2.11385        3.71574        0.08126
H          0.66475        0.74410        1.39112
Pd        -1.33326        0.27006       -0.19046
O         -3.48260        0.64875       -0.38617
C         -3.62588       -0.59576       -0.32876
O         -2.58479       -1.32700       -0.18575
C         -4.96270       -1.25111       -0.44944
H         -5.07324       -1.64232       -1.47243
H         -5.03148       -2.10138        0.24189
H         -5.76046       -0.52374       -0.25770
H          3.72237       -0.96606       -2.03377
C          4.19301        0.73467       -0.81997
H          5.16379        0.93165       -1.29886
H          3.44005        1.37988       -1.29579
H          4.27117        1.02035        0.24135
C          4.87174       -1.66600       -0.35919
H          4.58212       -2.72006       -0.46692
H          5.84104       -1.51140       -0.85579
H          4.99546       -1.47091        0.71673
H          0.12225       -3.61167        1.43424
H         -1.02532       -2.27640        1.71487
H          0.42975       -2.46580        2.74878
