41
Oxazole_H6_deriv1_Int2_Sub13.log	Energy: -669067.3907811
C         -0.18046       -0.59296       -0.08973
C          0.17660       -1.83832        0.33690
N          0.97248        0.05697       -0.50870
O          1.52492       -1.96285        0.18381
H         -0.36929       -2.69146        0.72642
C          1.93892       -0.78699       -0.32646
C          3.40923       -0.60956       -0.57038
O         -1.19737        1.98027       -0.63498
C         -0.39204        2.55794        0.09341
O         -0.06049        2.12529        1.28101
C          0.29264        3.80438       -0.33541
H          1.25804        3.49861       -0.76986
H         -0.29619        4.31263       -1.10647
H          0.49051        4.46126        0.52025
H         -0.44390        1.22524        1.38795
Pd        -1.97681        0.13815       -0.16176
O         -4.19479        0.21049       -0.09259
C         -4.13302       -1.00987        0.17799
O         -2.98335       -1.56595        0.28354
C         -5.35717       -1.85028        0.35533
H         -5.52076       -2.43549       -0.56256
H         -5.21436       -2.55959        1.18137
H         -6.23193       -1.21357        0.53308
C          3.62434        0.71792       -1.29528
H          4.69491        0.88587       -1.48168
H          3.10308        0.71402       -2.26313
H          3.23002        1.56360       -0.71635
C          4.12172       -0.65165        0.82010
H          6.08115       -0.70630        1.73586
H          3.80937       -1.60824        1.27514
C          5.64359       -0.66621        0.72650
C          3.88478       -1.76705       -1.46010
H          4.93461       -1.62988       -1.75554
H          3.79115       -2.73257       -0.94143
H          3.28255       -1.81606       -2.37976
H          6.02420       -1.53517        0.17161
H          6.03073        0.24426        0.24183
C          3.65848        0.47099        1.74478
H          2.56227        0.56251        1.77449
H          4.01137        0.29280        2.77180
H          4.06145        1.44559        1.42670
