44
Oxazole_H6_deriv1_Int2_Sub12.log	Energy: -693715.1014729
C         -0.32682       -0.55956       -0.23409
C          0.05049       -1.85232       -0.01691
N          0.81030        0.16317       -0.55874
O          1.39846       -1.93072       -0.20522
H         -0.47891       -2.76490        0.23660
C          1.79365       -0.68119       -0.51879
C          3.25629       -0.40624       -0.72159
O         -1.40739        2.02855       -0.54399
C         -0.59457        2.58906        0.18936
O         -0.21311        2.10610        1.34151
C          0.04254        3.87526       -0.19328
H          1.00623        3.62051       -0.66304
H         -0.57920        4.40234       -0.92477
H          0.24121        4.49562        0.68914
H         -0.56285        1.19027        1.41284
Pd        -2.13231        0.14477       -0.15845
O         -4.34586        0.16992        0.03405
C         -4.25096       -1.06604        0.20532
O         -3.08902       -1.60665        0.20574
C         -5.45065       -1.94112        0.38268
H         -5.65283       -2.46155       -0.56601
H         -5.25335       -2.70546        1.14607
H         -6.32488       -1.33640        0.65143
C          3.37118        0.96624       -1.39354
H          4.40365        1.15085       -1.71961
H          2.71823        1.00873       -2.27618
H          3.06445        1.78016       -0.72239
C          3.98678       -0.41992        0.68799
C          3.14982        0.34224        1.72233
H          3.72290        0.46075        2.65504
H          2.86164        1.34455        1.37363
C          3.82835       -1.46329       -1.67582
H          4.91652       -1.34403       -1.78492
H          3.62348       -2.48493       -1.33162
H          3.37784       -1.35031       -2.67343
H          2.22319       -0.19761        1.97081
C          4.18738       -1.85080        1.19979
H          4.90876       -2.40977        0.58603
H          4.58547       -1.82152        2.22619
H          3.24470       -2.41500        1.21966
C          5.36368        0.24484        0.58592
H          5.90967        0.10815        1.53234
H          5.97834       -0.19881       -0.21250
H          5.29246        1.32634        0.40189
