47
Oxazole_H6_deriv1_Int2_Sub4.log	Energy: -718373.6544930
C          0.28416       -0.07480       -0.11504
C          0.79378       -1.19539        0.49487
N          1.32257        0.56708       -0.78373
O          2.12501       -1.24584        0.17642
C          0.23950       -2.33912        1.29767
C          2.37155       -0.16136       -0.58605
C          3.78103        0.05504       -1.05173
O         -0.94134        2.48157        0.28818
C         -0.14788        2.78706        1.17748
O          0.51983        1.92201        1.88690
C          0.12781        4.21335        1.50851
H          1.11056        4.47831        1.08848
H         -0.64071        4.85789        1.06954
H          0.18439        4.34716        2.59682
H          0.38424        1.01937        1.49176
Pd        -1.53655        0.59495       -0.28215
O         -3.70493        0.66739       -0.74487
C         -3.60222       -0.55036       -1.01423
O         -2.46299       -1.12214       -0.88106
C         -4.75964       -1.36176       -1.50248
H         -4.60362       -1.60499       -2.56428
H         -4.80865       -2.31096       -0.95128
H         -5.69396       -0.79948       -1.39040
C          3.82921        1.31785       -1.90809
H          4.85752        1.49136       -2.25999
H          3.16748        1.22933       -2.78124
H          3.50055        2.19661       -1.33520
C          4.68515        0.21177        0.17943
H          4.64753       -0.68476        0.81567
H          5.72899        0.36852       -0.13388
H          4.37574        1.07642        0.78659
C          4.22741       -1.16302       -1.87180
H          5.26708       -1.03157       -2.20949
H          4.17379       -2.08458       -1.27373
H          3.59179       -1.29337       -2.76069
C         -0.20323       -3.44498        0.32471
H         -0.58127       -4.31584        0.88435
H         -1.00129       -3.07454       -0.33476
H          0.64109       -3.77970       -0.29720
C          1.31940       -2.87683        2.24310
H          1.66206       -2.09843        2.94263
H          0.91339       -3.71197        2.83386
H          2.19473       -3.24232        1.68792
C         -0.96514       -1.86979        2.11742
H         -1.35800       -2.70881        2.71235
H         -0.68695       -1.06273        2.81373
H         -1.77327       -1.50799        1.46640
