26
Oxazole_H7_Int2_Sub6.log	Energy: -545819.3614362
C         -0.81402        0.97906       -0.27728
C         -1.01624        2.18253        0.35775
O         -1.85065        0.83779       -1.17570
C         -0.18885        2.83193        1.40725
N         -2.16517        2.77086       -0.14648
C         -2.59799        1.94210       -1.03394
H         -3.47962        2.03145       -1.66786
O         -0.82810       -1.87148       -0.28956
C         -1.85651       -1.93498        0.38680
O         -2.25553       -0.99101        1.18963
C         -2.74955       -3.12470        0.32297
H         -2.24985       -3.94364       -0.20430
H         -3.04316       -3.42837        1.33681
H         -3.66703       -2.84200       -0.21567
H         -1.67028       -0.19653        1.06338
Pd         0.57713       -0.37665       -0.19074
O          2.54209       -1.32345       -0.04565
C          3.01304       -0.16135       -0.00737
O          2.20211        0.82859       -0.04622
C          4.48154        0.10245        0.05256
H          4.83612        0.35444       -0.95869
H          4.68611        0.96319        0.70271
H          5.01299       -0.79027        0.40323
H          0.10171        3.84365        1.08617
H          0.72452        2.25210        1.59303
H         -0.75119        2.93990        2.34816
