24
Pyrazole_H7_Int2_Sub18.log	Energy: -796989.6425249
C         -0.89292       -0.08104        0.28411
C         -1.71748       -0.96700       -0.40140
C         -1.79142        0.60317        1.15182
N         -2.96787       -0.74911        0.08193
H         -1.51484       -1.72957       -1.14901
H         -1.56841        1.38144        1.88182
N         -3.04486        0.18654        1.01099
Cl        -4.36531       -1.55343       -0.42380
O          1.06771        2.04348        0.37636
C          0.41208        2.82849       -0.31176
O         -0.54781        2.45808       -1.10958
C          0.66783        4.29510       -0.27304
H          1.56706        4.50653        0.31419
H          0.77210        4.67794       -1.29786
H         -0.20326        4.79622        0.17538
H         -0.73037        1.49455       -0.95022
Pd         1.05856       -0.00736        0.16845
O          3.14874       -0.67617       -0.01350
C          2.67666       -1.83157       -0.12602
O          1.40495       -1.98268       -0.10577
C          3.54789       -3.03917       -0.25060
H          3.64847       -3.50456        0.74204
H          3.08622       -3.77549       -0.92130
H          4.54402       -2.75196       -0.60816
