42
Pyrazole_H6_deriv1_Int2_Sub28.log	Energy: -656604.6097050
C         -0.16929       -0.55468        0.14267
C          1.05321       -0.16154        0.69166
N          0.11332       -1.68252       -0.55319
C          1.99279       -1.13425        0.25151
H          1.22762        0.67065        1.36998
H         -0.56904       -2.26194       -1.02774
N          1.39296       -2.05347       -0.49625
C          3.46604       -1.21635        0.52216
O         -1.42223        2.06993        0.51053
C         -0.59682        2.74417       -0.10794
O          0.33838        2.24273       -0.86232
C         -0.59870        4.23205       -0.02546
H         -1.49162        4.58118        0.50274
H          0.30728        4.56090        0.50571
H         -0.55310        4.65572       -1.03848
H          0.39331        1.25820       -0.72213
Pd        -1.98835        0.11225        0.19301
O         -4.21048        0.04485        0.06878
C         -4.06412       -1.17368       -0.16580
O         -2.87412       -1.65644       -0.21828
C         -5.22120       -2.09885       -0.35963
H         -5.00822       -2.80917       -1.16962
H         -5.36739       -2.68054        0.56341
H         -6.13250       -1.52699       -0.57051
H          3.75431       -2.23147        0.20064
C          4.30623       -0.24164       -0.36450
H          3.03733        1.52304       -0.10350
H          4.69507        1.87814       -0.62514
C          4.08867        1.22324        0.02063
C          3.73985       -1.10043        2.02085
H          3.17574       -1.86970        2.56823
H          4.80512       -1.23649        2.25570
H          3.43030       -0.12301        2.42144
H          4.38461        1.42426        1.06167
C          5.79202       -0.58301       -0.21585
H          5.98248       -1.63892       -0.46618
H          6.39865        0.03690       -0.89473
H          6.15962       -0.40499        0.80566
C          3.91213       -0.43196       -1.83130
H          4.55800        0.17537       -2.48511
H          4.00633       -1.48578       -2.13621
H          2.86883       -0.13374       -2.01208
