24
Pyrazole_H7_Int2_Sub2.log	Energy: -797019.8778011
C         -0.87496        0.72106       -0.53078
C         -1.17797        1.88559        0.16586
C         -1.79261        0.78264       -1.62101
N         -2.17834        2.51647       -0.49279
Cl        -0.51261        2.53714        1.59501
H         -1.90636        0.06774       -2.43618
N         -2.56614        1.85835       -1.58272
H         -2.62531        3.38585       -0.22913
O         -0.57374       -2.17084       -0.11656
C         -1.68187       -2.28630        0.41085
O         -2.39141       -1.28050        0.82819
C         -2.30757       -3.62464        0.60706
H         -1.61181       -4.41471        0.30734
H         -2.59584       -3.74186        1.66137
H         -3.22922       -3.68142        0.00908
H         -1.93705       -0.43777        0.54496
Pd         0.62723       -0.50245       -0.21565
O          2.67760       -1.22192        0.05180
C          3.02479       -0.02212       -0.06989
O          2.11933        0.86419       -0.24422
C          4.45821        0.39829       -0.04584
H          4.79656        0.56063       -1.08071
H          4.56499        1.34868        0.49354
H          5.07492       -0.38425        0.41212
