36
Pyrazole_H6_deriv1_Int2_Sub14.log	Energy: -607302.4706536
C          0.48808       -0.45450       -0.11121
C          1.65969       -0.25226        0.62624
N          0.85959       -1.22185       -1.16703
C          2.67242       -0.95256       -0.08434
H          1.74527        0.25880        1.58391
C          0.03175       -1.67483       -2.25589
N          2.16633       -1.52377       -1.16630
C          4.12701       -1.08725        0.25508
O         -0.79634        2.16547        0.23790
C          0.14850        2.84815       -0.16216
O          1.30104        2.37717       -0.52894
C          0.03006        4.33346       -0.24840
H         -0.98716        4.64846        0.00524
H          0.75454        4.79407        0.43938
H          0.29460        4.66066       -1.26415
H          1.36181        1.39274       -0.34017
Pd        -1.32511        0.17650        0.19126
O         -3.51671        0.14825        0.50703
C         -3.43209       -1.09206        0.36634
O         -2.28215       -1.61152        0.13317
C         -4.61731       -1.99475        0.48283
H         -4.59920       -2.74585       -0.31844
H         -4.56168       -2.53272        1.44138
H         -5.54445       -1.41069        0.44900
H          4.56373       -1.68966       -0.55832
C          4.81817        0.27545        0.27574
H          5.89591        0.16848        0.47561
H          4.69808        0.79791       -0.68524
H          4.39607        0.92091        1.06347
C          4.32483       -1.83535        1.57261
H          3.84576       -2.82506        1.54302
H          5.39572       -1.97742        1.78722
H          3.88637       -1.27603        2.41501
H         -0.99438       -1.81528       -1.89383
H          0.43256       -2.63138       -2.61304
H          0.03687       -0.95373       -3.08885
