33
Pyrazole_H6_Int2_Sub5.log	Energy: -582654.3401253
C          0.45139       -0.91834       -0.49554
C          1.74727       -1.17445       -0.02860
N          0.25629       -1.80957       -1.50495
C          2.20420       -2.23971       -0.85022
C          2.43264       -0.56625        1.16442
H         -0.59976       -1.92626       -2.03229
N          1.29088       -2.61250       -1.73384
H          3.16730       -2.74988       -0.82186
O          0.21230        1.95268        0.19489
C          1.17535        2.31430       -0.48501
O          1.83617        1.53606       -1.28820
C          1.68434        3.71305       -0.40876
H          0.95315        4.35566        0.09231
H          2.62578        3.71061        0.16218
H          1.91273        4.08383       -1.41693
H          1.53667        0.58850       -1.16792
Pd        -0.98310        0.28211        0.04944
O         -3.03958        0.93961        0.54634
C         -3.37713       -0.23748        0.28976
O         -2.47725       -1.07053       -0.09004
C         -4.78413       -0.71765        0.43745
H         -5.04137       -1.39985       -0.38366
H         -4.86730       -1.28261        1.37855
H         -5.47391        0.13399        0.46998
H          1.89313        0.36408        1.41307
C          2.30583       -1.48830        2.37891
H          2.75898       -1.03186        3.27351
H          1.24949       -1.70414        2.59650
H          2.81208       -2.44899        2.19325
C          3.89211       -0.21638        0.88163
H          3.98416        0.46772        0.02457
H          4.35914        0.26150        1.75700
H          4.47794       -1.12031        0.65055
