27
Pyrazole_H6_Int2_Sub14.log	Energy: -533356.7369571
C         -0.91141       -0.72996       -0.08878
C         -2.20425       -0.52324       -0.57542
N         -0.98166       -1.90449        0.58312
C         -2.95352       -1.64794       -0.13275
H         -2.54743        0.28671       -1.21642
H         -0.19617       -2.37560        1.01630
N         -2.18707       -2.47450        0.56591
C         -4.39152       -1.95531       -0.37466
O         -0.03720        2.05821       -0.45957
C         -0.92697        2.60729        0.19290
O         -1.77727        1.97542        0.94787
C         -1.10672        4.08654        0.15649
H         -0.30103        4.55181       -0.42012
H         -2.08258        4.32027       -0.29448
H         -1.12267        4.47630        1.18431
H         -1.70712        0.99360        0.79588
Pd         0.79212        0.19123       -0.19596
O          3.00633        0.42817       -0.15628
C          3.03751       -0.80111        0.06490
O          1.92774       -1.44328        0.15460
C          4.31698       -1.56057        0.20123
H          4.23729       -2.29612        1.01283
H          4.50117       -2.11400       -0.73230
H          5.15019       -0.87067        0.37937
H         -4.61174       -2.02650       -1.45132
H         -5.04852       -1.17717        0.04482
H         -4.64542       -2.91450        0.09567
