49
Pyrazole_H6_deriv1_Int2_Sub3.log	Energy: -729802.3906016
C         -0.28970       -0.83076       -0.54695
C          1.08010       -0.72995       -0.25423
N         -0.43333       -1.99406       -1.23162
C          1.64858       -1.91620       -0.82473
C          1.64698        0.39920        0.56619
H         -1.30780       -2.40177       -1.53676
N          0.70227       -2.65245       -1.40738
C          3.02628       -2.53658       -0.81289
O         -1.12804        2.01215       -0.46503
C         -0.53635        2.31539       -1.50383
O         -0.06616        1.44351       -2.34616
C         -0.27949        3.73993       -1.85295
H         -1.00567        4.38840       -1.35109
H          0.73165        3.99652       -1.49802
H         -0.30086        3.87954       -2.94087
H         -0.11762        0.53754       -1.92988
Pd        -1.88289        0.15676        0.01547
O         -3.92721        0.47633        0.79950
C         -3.99096       -0.77089        0.88306
O         -2.98513       -1.46874        0.49899
C         -5.18387       -1.47468        1.44326
H         -5.37513       -2.40223        0.88780
H         -4.97234       -1.74820        2.48842
H         -6.05942       -0.81502        1.41909
H          2.98830       -3.24371       -1.65762
C          4.19481       -1.59244       -1.06576
H          5.11319       -2.17219       -1.24624
H          4.02066       -0.95309       -1.94409
H          4.39316       -0.94074       -0.20195
C          3.24274       -3.37452        0.44983
H          2.43136       -4.10672        0.57022
H          4.19682       -3.92294        0.39482
H          3.26665       -2.74701        1.35356
H          0.76470        0.98604        0.87982
C          2.56017        1.37902       -0.18506
H          2.08502        1.70087       -1.12400
H          3.48662        0.86703       -0.48525
C          2.91006        2.57995        0.68729
H          3.57526        3.26928        0.14123
H          1.98764        3.14719        0.91380
C          3.55859        2.14265        1.99670
H          3.77267        3.01731        2.63227
H          4.53482        1.67495        1.77337
C          2.68409        1.14145        2.74421
H          1.75602        1.64427        3.07188
H          3.19081        0.80010        3.66153
C          2.31884       -0.05194        1.86795
H          3.23212       -0.62373        1.63199
H          1.64870       -0.74068        2.40630
