45
Pyrazole_H6_deriv1_Int2_Sub12.log	Energy: -681255.1996425
C         -0.46200       -0.27224       -0.17743
C         -1.46065       -0.18257       -1.15130
N         -1.08012       -0.75823        0.93458
C         -2.64030       -0.66082       -0.52302
H         -1.32717        0.12930       -2.18584
C         -0.46909       -1.09964        2.23789
N         -2.38443       -1.00277        0.72850
C         -4.02160       -0.78820       -1.09323
O          0.99082        2.23143        0.10392
C         -0.01977        2.92937        0.20791
O         -1.22999        2.52906       -0.03159
C          0.08487        4.35007        0.65396
H          1.13484        4.65628        0.70137
H         -0.48262        4.99763       -0.02842
H         -0.37575        4.44132        1.64943
H         -1.25186        1.56638       -0.31847
Pd         1.39710        0.27117       -0.38592
O          3.55481        0.19795       -0.83555
C          3.38754       -1.02829       -1.03130
O          2.21445       -1.52205       -0.88543
C          4.50458       -1.93489       -1.43566
H          4.55215       -2.79065       -0.74746
H          4.30055       -2.33433       -2.44005
H          5.45610       -1.39079       -1.43723
H         -4.64146       -1.19013       -0.27492
C         -4.57915        0.57544       -1.49949
H         -5.61433        0.48614       -1.86475
H         -4.57375        1.27666       -0.65141
H         -3.97826        1.02257       -2.30833
C         -4.05451       -1.77614       -2.25816
H         -3.67618       -2.76289       -1.95296
H         -5.08058       -1.90285       -2.63786
H         -3.42981       -1.42247       -3.09441
C          0.27022        0.12187        2.78367
H          0.67418       -0.10201        3.78182
H          1.11196        0.41160        2.13639
H         -0.41557        0.97863        2.87205
C         -1.57387       -1.49319        3.21298
H         -2.13384       -2.36451        2.85200
H         -1.11407       -1.73769        4.18192
H         -2.29146       -0.67388        3.35598
C          0.48815       -2.27464        2.03348
H          0.96203       -2.54788        2.98832
H         -0.06271       -3.14866        1.65571
H          1.27563       -2.03233        1.30542
