37
Pyrazole_H6_deriv1_Int2_Sub16.log	Energy: -654436.9553904
C          0.51850       -0.25853       -0.00352
C          1.66298       -0.19143        0.79964
N          0.96241       -0.84041       -1.14238
C          2.70592       -0.77781        0.02972
H          1.71399        0.17668        1.82284
O          0.21165       -1.05832       -2.23789
N          2.24898       -1.16400       -1.15558
C          4.14464       -0.97559        0.40613
O         -0.95935        2.26707       -0.02408
C          0.02769        2.97381       -0.23569
O          1.25680        2.55782       -0.23353
C         -0.13175        4.42787       -0.53113
H         -1.17919        4.72478       -0.41722
H          0.51628        5.01489        0.13452
H          0.20264        4.61721       -1.56229
H          1.31540        1.58114       -0.02234
Pd        -1.33421        0.26870        0.25311
O         -3.49975        0.11808        0.60962
C         -3.32217       -1.12034        0.66065
O         -2.13405       -1.57894        0.51007
C         -4.44294       -2.08287        0.88300
H         -4.54150       -2.73505        0.00273
H         -4.21063       -2.72693        1.74303
H         -5.38074       -1.54183        1.05376
H          4.61902       -1.43619       -0.47582
C          4.83245        0.36001        0.68519
H          5.90083        0.21355        0.90850
H          4.75215        1.03773       -0.17789
H          4.37765        0.86538        1.55286
C          4.28332       -1.93467        1.58763
H          3.80940       -2.90340        1.37098
H          5.34356       -2.11554        1.82447
H          3.80453       -1.52204        2.49045
C         -0.27109       -2.39581       -2.26711
H          0.57122       -3.10499       -2.26962
H         -0.93726       -2.58510       -1.41024
H         -0.83136       -2.48303       -3.20648
