33
Pyrazole_H6_Int2_Sub13.log	Energy: -582656.0410111
C          0.50886       -0.52859       -0.03703
C          1.77535       -0.14035        0.40596
N          0.73063       -1.63582       -0.78569
C          2.67142       -1.09942       -0.14274
H          2.01260        0.67676        1.08457
H          0.00947       -2.20335       -1.21510
N          2.01239       -1.99959       -0.85915
C          4.16268       -1.16771        0.00338
O         -0.75506        2.06881        0.51782
C          0.00992        2.78105       -0.13520
O          0.91694        2.32803       -0.95029
C         -0.04219        4.26687       -0.02700
H         -0.89286        4.57212        0.59049
H          0.89815        4.62865        0.41500
H         -0.11647        4.70306       -1.03329
H          1.01067        1.34163       -0.84610
Pd        -1.30647        0.11003        0.19514
O         -3.53066        0.00620        0.26518
C         -3.38682       -1.20185       -0.01920
O         -2.19885       -1.66154       -0.19075
C         -4.54215       -2.14163       -0.14003
H         -4.39230       -2.82039       -0.99025
H         -4.59483       -2.75662        0.77140
H         -5.47766       -1.58030       -0.24807
H          4.46866       -2.07754       -0.53868
C          4.83761        0.03633       -0.65287
H          5.93432       -0.03956       -0.58498
H          4.56464        0.11404       -1.71590
H          4.53658        0.97520       -0.15956
C          4.57616       -1.31177        1.46690
H          4.10608       -2.19268        1.92842
H          5.66862       -1.41704        1.55834
H          4.27708       -0.42716        2.05260
