41
Pyridine_H10_deriv2_Int2_Sub6.log	Energy: -645782.9394909
C         -0.22942       -0.22070       -0.55496
C         -1.29056        0.32451        0.20923
C         -0.51332       -0.93075       -1.72520
C         -2.60982        0.12771       -0.26951
C         -0.92562        1.06591        1.46920
N         -1.74785       -1.12284       -2.17703
H          0.29940       -1.36501       -2.32046
C         -2.73654       -0.60368       -1.46470
C         -3.94456        0.62104        0.33240
H         -3.73712       -0.78079       -1.87269
O          2.08164       -1.93553        0.02641
C          1.41206       -2.83418        0.53428
O          0.17306       -2.68979        0.91324
C          1.97497       -4.19676        0.74976
H          3.05236       -4.19469        0.55610
H          1.76169       -4.52877        1.77522
H          1.47237       -4.89891        0.06732
H         -0.14602       -1.80133        0.61268
Pd         1.66927        0.08446       -0.13579
O          3.58443        1.18181        0.17007
C          2.90870        2.22110       -0.00332
O          1.64966        2.11993       -0.21443
C          3.52691        3.58346        0.00349
H          2.88755        4.28540        0.55559
H          4.53141        3.54352        0.44107
H          3.59881        3.94581       -1.03334
C         -3.85743        1.42421        1.63312
H         -4.87662        1.72466        1.92095
H         -3.44810        0.83758        2.46578
H         -3.26715        2.34278        1.52409
C         -4.63177        1.53028       -0.70205
H         -4.82723        1.01371       -1.65206
H         -5.59759        1.88676       -0.30999
H         -4.00747        2.40981       -0.92233
C         -4.83514       -0.59951        0.62327
H         -5.80196       -0.27249        1.03784
H         -5.04301       -1.19354       -0.27764
H         -4.35743       -1.26422        1.35977
H         -1.43068        0.66083        2.35466
H         -1.17350        2.13333        1.39734
H          0.15764        1.00294        1.63329
