29
Pyridine_H10_Int2_Sub14.log	Energy: -547191.5334190
C         -0.79188       -0.90041       -0.04947
C         -0.90147       -1.77305       -1.13964
C         -1.79280       -0.96409        0.94755
C         -1.99046       -2.63884       -1.22664
H         -0.12642       -1.78248       -1.91133
N         -2.82783       -1.80473        0.85536
C         -1.76500       -0.08962        2.16722
C         -2.92782       -2.60839       -0.19772
H         -2.10172       -3.32848       -2.06636
H         -3.79870       -3.27427       -0.22070
O         -0.31329        2.01534        0.16669
C         -1.33709        2.32838       -0.43805
O         -2.03766        1.49626       -1.15775
C         -1.88202        3.71394       -0.38363
H         -1.16976        4.37962        0.11413
H         -2.10222        4.06643       -1.40080
H         -2.83303        3.69976        0.17018
H         -1.66191        0.58739       -1.05292
Pd         0.78580        0.26128        0.05794
O          2.94237        0.82396        0.10550
C          3.16476       -0.40304       -0.00203
O          2.17510       -1.21199       -0.08862
C          4.55137       -0.96419       -0.00532
H          4.62941       -1.77833       -0.73810
H          5.28079       -0.17395       -0.21907
H          4.76339       -1.38911        0.98776
H         -2.35136        0.83029        2.00122
H         -0.74263        0.20638        2.43848
H         -2.23543       -0.62157        3.00466
