29
Pyridine_H10_deriv1_Int2_Sub14.log	Energy: -835514.7091535
C         -0.77512       -0.54668        0.08845
C         -1.12708       -1.65848       -0.68370
C         -1.76166       -0.11132        0.99416
C         -2.38577       -2.26495       -0.56342
H         -0.39473       -2.07282       -1.38387
N         -2.94507       -0.65830        1.13287
Cl        -1.42659        1.25952        2.02772
C         -3.25622       -1.70612        0.37381
C         -2.76722       -3.45745       -1.38573
H         -4.25537       -2.13286        0.52116
O          0.47602        2.12939       -0.38254
C         -0.50362        2.56780       -0.98017
O         -1.41659        1.81178       -1.52705
C         -0.74804        4.03053       -1.10189
H          0.18630        4.58150       -0.95114
H         -1.20481        4.26995       -2.07028
H         -1.46095        4.31178       -0.31043
H         -1.23746        0.87369       -1.28227
Pd         1.04578        0.17336       -0.04660
O          3.25332        0.16630       -0.06696
C          3.16363       -1.06757        0.12923
O          2.00021       -1.59971        0.19911
C          4.36697       -1.93408        0.31497
H          4.20894       -2.91192       -0.15864
H          5.25690       -1.43955       -0.09236
H          4.51581       -2.10354        1.39249
H         -2.70842       -3.23631       -2.46297
H         -3.79239       -3.78529       -1.16337
H         -2.09126       -4.30491       -1.19086
