28
Pyridazine_H7_Int2_Sub22.log	Energy: -557234.7120035
C         -0.99770       -0.29731       -0.29245
C         -1.94720        0.45350       -1.00686
C         -1.48162       -1.43492        0.33601
N         -3.23358        0.12752       -1.07105
H         -1.67037        1.35223       -1.56678
C         -2.85374       -1.72193        0.23414
H         -0.81368       -2.10590        0.88356
N         -3.68603       -0.93792       -0.45322
C         -3.45353       -2.92735        0.88799
O          0.52157        2.15887       -0.40716
C         -0.11399        2.79661        0.43255
O         -0.68266        2.23880        1.46784
C         -0.31128        4.26603        0.32326
H          0.36308        4.68107       -0.43261
H         -1.35599        4.45273        0.02916
H         -0.15348        4.74271        1.29987
H         -0.57078        1.26422        1.38739
Pd         0.90522        0.13194       -0.21206
O          3.10202       -0.19315       -0.05990
C          2.82121       -1.40713        0.05194
O          1.58800       -1.76077        0.04676
C          3.87210       -2.46394        0.16159
H          3.55464       -3.24502        0.86491
H          4.00223       -2.93518       -0.82475
H          4.82562       -2.02043        0.47195
H         -3.27327       -2.92328        1.97411
H         -3.01292       -3.85292        0.48549
H         -4.53485       -2.93812        0.70299
