35
Pyridine_H10_Int2_Sub21.log	Energy: -596490.4615496
C         -0.50132       -0.47225       -0.49727
C         -1.61738        0.17332        0.04195
C         -0.73072       -1.60957       -1.28863
C         -2.90110       -0.33079       -0.19441
H         -1.47850        1.08615        0.62936
N         -1.94453       -2.09753       -1.52862
H          0.10697       -2.14271       -1.75436
C         -2.99005       -1.47700       -0.99176
C         -4.13657        0.33495        0.36576
H         -3.97680       -1.90725       -1.20741
O          2.17416       -1.56801       -0.19251
C          1.87040       -2.46979        0.58838
O          0.83670       -2.41106        1.38333
C          2.65752       -3.72946        0.67662
H          3.60357       -3.62110        0.13662
H          2.83162       -3.99053        1.72920
H          2.06490       -4.54232        0.22920
H          0.31885       -1.60353        1.15232
Pd         1.27418        0.29632       -0.20606
O          2.83531        1.86547        0.09947
C          1.88781        2.68023        0.05174
O          0.69336        2.23954       -0.10002
C          2.10201        4.15814        0.13501
H          1.29130        4.62933        0.70615
H          3.07749        4.37565        0.58615
H          2.08026        4.57536       -0.88351
H         -4.99933       -0.27225        0.04036
C         -4.12464        0.34597        1.89378
H         -5.05521        0.78173        2.28960
H         -4.02283       -0.67138        2.30059
H         -3.28610        0.94762        2.27969
C         -4.31492        1.74235       -0.20323
H         -4.35663        1.72572       -1.30239
H         -5.24437        2.20042        0.16959
H         -3.47825        2.39721        0.08816
