29
Pyridazine_H7_Int2_Sub24.log	Energy: -604404.1083043
C         -0.76402        0.05726       -0.34695
C         -1.42667        1.04376       -1.11254
C         -1.56858       -0.87407        0.28051
N         -2.74321        1.10622       -1.22831
H         -0.87470        1.80777       -1.66770
C         -2.96024       -0.73206        0.11114
H         -1.17158       -1.70526        0.86724
N         -3.50976        0.22903       -0.61438
O         -3.75229       -1.61532        0.71762
O          1.38671        1.98141       -0.35329
C          0.90929        2.76191        0.47048
O          0.15026        2.37586        1.46080
C          1.13888        4.22870        0.39063
H          1.94718        4.44515       -0.31519
H          0.20828        4.70458        0.04380
H          1.36402        4.63153        1.38705
H         -0.01593        1.41093        1.36070
Pd         1.17853       -0.07398       -0.20169
O          3.18597       -1.00453        0.00367
C          2.57195       -2.09270        0.07670
O          1.29041       -2.08446        0.02669
C          3.27933       -3.40391        0.19075
H          2.73202       -4.07350        0.86724
H          3.30335       -3.87891       -0.80205
H          4.30840       -3.25132        0.53708
C         -5.14702       -1.47487        0.53478
H         -5.50242       -0.50286        0.90861
H         -5.41820       -1.54636       -0.52918
H         -5.60799       -2.29302        1.10179
