42
Pyridine_H10_deriv1_Int2_Sub19.log	Energy: -958015.8977091
C          0.40253       -0.25156       -0.25704
C         -0.12526       -1.01226       -1.30865
C         -0.55973        0.27106        0.62689
C         -1.50270       -1.18397       -1.44220
H          0.55533       -1.48618       -2.02137
N         -1.85616        0.11281        0.51779
Cl        -0.02618        1.22176        1.99671
C         -2.35109       -0.60011       -0.49989
H         -1.91593       -1.77363       -2.26337
C         -3.84868       -0.73616       -0.56015
O          2.43342        1.92096        0.07384
C          1.73619        2.76105       -0.48964
O          0.74404        2.46400       -1.28371
C          1.95470        4.21805       -0.27954
H          2.96935        4.39625        0.09193
H          1.76053        4.77752       -1.20321
H          1.23085        4.55414        0.47988
H          0.59907        1.48824       -1.25430
Pd         2.34931       -0.13957       -0.02615
O          4.43017       -0.84645        0.17506
C          3.95727       -1.99991        0.05180
O          2.69611       -2.13509       -0.12818
C          4.81041       -3.22387        0.13799
H          4.46148       -3.98219       -0.57519
H          5.86093       -2.96738       -0.04394
H          4.71750       -3.64732        1.14990
H         -4.09517       -1.34767       -1.44657
C         -4.51838        0.63424       -0.72003
H         -4.15660        1.11917       -1.64172
H         -4.18891        1.26973        0.11992
C         -6.03829        0.52609       -0.73115
H         -6.48637        1.52963       -0.81363
H         -6.35852       -0.03037       -1.63114
C         -6.55716       -0.18986        0.51078
H         -7.65402       -0.28847        0.46830
H         -6.33245        0.42360        1.40187
C         -5.90452       -1.55838        0.67024
H         -6.21914       -2.21003       -0.16556
H         -6.25640       -2.04851        1.59241
C         -4.38441       -1.45457        0.68438
H         -4.05033       -0.88794        1.57039
H         -3.92674       -2.45437        0.76114
