26
Pyridine_H10_Int2_Sub18.log	Energy: -810860.2111122
C          0.80493        0.19611       -0.38129
C          1.69180       -0.71124        0.20957
C          1.35469        1.24807       -1.13068
C          3.05859       -0.50473        0.04239
H          1.32630       -1.57493        0.76997
N          2.66395        1.43101       -1.29046
H          0.70321        1.97097       -1.63479
C          3.50421        0.58159       -0.71534
Cl         4.20711       -1.58449        0.75489
H          4.57783        0.74819       -0.85345
O         -1.54221        1.90564       -0.29416
C         -1.11570        2.72167        0.52329
O         -0.23834        2.41955        1.44172
C         -1.55435        4.14272        0.51748
H         -2.42078        4.26662       -0.13995
H         -1.78505        4.46898        1.54056
H         -0.72019        4.76274        0.15411
H          0.06281        1.49493        1.28346
Pd        -1.11943       -0.11756       -0.20837
O         -3.02392       -1.24315        0.00216
C         -2.30670       -2.26793        0.03595
O         -1.03286       -2.13383       -0.03428
C         -2.88177       -3.64417        0.12493
H         -2.25202       -4.27953        0.76144
H         -3.90918       -3.60222        0.50566
H         -2.89331       -4.08688       -0.88294
