43
Pyridine_H10_deriv2_Int2_Sub15.log	Energy: -680503.0292491
C          0.01981        0.32669       -0.31039
C          0.92194       -0.61010        0.22534
C          0.58341        1.41482       -0.97456
C          2.30047       -0.45663        0.13802
H          0.50758       -1.49605        0.70717
N          1.89509        1.59774       -1.08902
H         -0.04876        2.17900       -1.44422
C          2.74312        0.71703       -0.55538
C          3.25588       -1.49587        0.73772
N          4.06623        1.03120       -0.71113
O         -2.39321        1.94647       -0.05186
C         -1.94368        2.68947        0.82136
O         -0.93590        2.37343        1.58512
C         -2.51722        4.04209        1.06614
H         -3.45797        4.15789        0.51843
H         -2.66900        4.19289        2.14368
H         -1.79215        4.79806        0.72793
H         -0.54241        1.53035        1.23676
Pd        -1.90109       -0.05540       -0.24610
O         -3.78333       -1.27681       -0.24480
C         -3.02271       -2.26543       -0.32655
O         -1.75453       -2.08181       -0.34295
C         -3.54438       -3.66410       -0.43699
H         -2.90964       -4.35356        0.13524
H         -4.58393       -3.71043       -0.09110
H         -3.50638       -3.97301       -1.49294
C          2.49004       -2.62686        1.43198
H          3.20711       -3.34762        1.85357
H          1.86945       -2.25245        2.25972
H          1.83872       -3.17328        0.73389
C          4.09440       -2.15579       -0.37205
H          4.69913       -1.45052       -0.96008
H          4.78376       -2.89761        0.06127
H          3.43616       -2.67625       -1.08373
C          4.15283       -0.84672        1.80660
H          4.86064       -1.58719        2.21177
H          4.73210        0.00868        1.43396
H          3.53710       -0.47544        2.63988
H          4.74776        0.32355       -0.49728
C          4.48817        2.14772       -1.51241
H          5.58242        2.22913       -1.45566
H          4.04296        3.08288       -1.14288
H          4.18978        2.04870       -2.57097
