31
Pyridine_H10_deriv1_Int2_Sub15.log	Energy: -870224.4671942
C         -0.76377       -0.04129        0.27235
C         -1.57726       -1.00176       -0.33866
C         -1.40751        0.85696        1.13895
C         -2.96341       -1.03517       -0.09255
H         -1.11630       -1.74803       -0.98884
N         -2.69854        0.83985        1.38667
Cl        -0.47790        2.09180        1.96171
C         -3.46306       -0.06368        0.79889
N         -3.79927       -1.94257       -0.68151
H         -4.53410       -0.03947        1.03713
O          1.35255        1.84399       -0.64097
C          0.55879        2.56087       -1.24499
O         -0.62420        2.16969       -1.63347
C          0.88190        3.97902       -1.56073
H          1.96669        4.12906       -1.54935
H          0.44427        4.27462       -2.52234
H          0.42727        4.60089       -0.77310
H         -0.80217        1.27437       -1.26030
Pd         1.16952       -0.12336       -0.04114
O          3.19800       -1.00442       -0.15721
C          2.65928       -2.06888        0.22306
O          1.39396       -2.08895        0.42079
C          3.45011       -3.31069        0.48471
H          2.88039       -4.19759        0.17776
H          4.41399       -3.26335       -0.03611
H          3.63491       -3.38862        1.56717
H         -4.73585       -1.99652       -0.30808
C         -3.32690       -3.05564       -1.45177
H         -4.18486       -3.65202       -1.78868
H         -2.64879       -3.72021       -0.88286
H         -2.78616       -2.72106       -2.35365
