42
Pyridine_H10_deriv2_Int2_Sub16.log	Energy: -692961.6281376
C          0.02284        0.30763       -0.32566
C          0.92440       -0.62516        0.22019
C          0.57571        1.39896       -0.99067
C          2.30296       -0.46215        0.12970
H          0.51644       -1.51144        0.70771
N          1.89333        1.58357       -1.09991
H         -0.05748        2.15949       -1.46243
C          2.71855        0.70584       -0.56634
C          3.29155       -1.46959        0.71688
O          4.03824        0.93195       -0.69606
O         -2.38072        1.94017       -0.07932
C         -1.94464        2.68653        0.79750
O         -0.96653        2.36027        1.59639
C         -2.49900        4.05179        1.01013
H         -3.40613        4.18772        0.41274
H         -2.70664        4.20592        2.07801
H         -1.73960        4.79135        0.71396
H         -0.58735        1.50256        1.27936
Pd        -1.89838       -0.06574       -0.24296
O         -3.78198       -1.26689       -0.21638
C         -3.03183       -2.26490       -0.28965
O         -1.76217       -2.09064       -0.31477
C         -3.56597       -3.65931       -0.37904
H         -2.93833       -4.34506        0.20535
H         -4.60645       -3.69055       -0.03444
H         -3.52809       -3.98535       -1.42981
C          2.56352       -2.62833        1.40158
H          3.30405       -3.33270        1.80972
H          1.93713       -2.28428        2.23900
H          1.92438       -3.18635        0.70055
C          4.16068       -2.05449       -0.40758
H          4.73294       -1.27198       -0.92150
H          4.87101       -2.78686        0.00823
H          3.53476       -2.57267       -1.15051
C          4.17589       -0.77740        1.76582
H          4.88734       -1.50090        2.19496
H          4.74720        0.05012        1.32672
H          3.56196       -0.37829        2.58845
C          4.43731        2.08240       -1.40626
H          4.06277        2.06453       -2.44096
H          4.06102        2.99943       -0.92779
H          5.53466        2.07462       -1.39988
