31
Pyridazine_H7_deriv1_Int2_Sub22.log	Energy: -581884.0981639
C         -0.75482        0.05251       -0.48520
C         -1.39342        1.05923       -1.22592
C         -1.58312       -0.94429        0.01507
N         -2.70829        1.09081       -1.43121
H         -0.83501        1.87633       -1.69297
C         -2.96042       -0.84989       -0.23223
H         -1.17610       -1.79356        0.57071
N         -3.48228        0.15870       -0.93485
C         -3.94284       -1.85169        0.30391
O          1.35476        2.01785       -0.28351
C          0.82229        2.76212        0.54007
O          0.02178        2.32862        1.47688
C          1.02760        4.23442        0.52094
H          1.86295        4.48929       -0.13906
H          0.10496        4.70654        0.14867
H          1.20000        4.60568        1.53993
H         -0.11639        1.36434        1.33583
Pd         1.17403       -0.04506       -0.20139
O          3.18093       -0.95013        0.12682
C          2.58326       -2.04923        0.12550
O          1.30846       -2.06097       -0.01759
C          3.30456       -3.35160        0.25492
H          2.72145       -4.05030        0.86920
H          3.41151       -3.79620       -0.74646
H          4.30206       -3.19244        0.68139
C         -4.78213       -1.27645        1.43982
H         -3.40382       -2.75240        0.63628
H         -4.60417       -2.15137       -0.52432
H         -4.15336       -0.99963        2.30058
H         -5.53273       -2.00221        1.78688
H         -5.30576       -0.37172        1.09756
