43
Styrene_H9_Int2_Sub20.log	Energy: -659607.6782568
C          0.14767       -0.24457        0.02953
C          0.96968        0.31527        1.03964
C          0.76020       -0.97088       -0.99722
C          0.47628        1.07038        2.20116
C          2.35999        0.15298        0.93319
C          2.14694       -1.12658       -1.06615
H          0.13865       -1.43340       -1.76880
C         -0.75166        1.05363        2.73371
H          1.24065        1.68140        2.69645
C          2.98003       -0.55796       -0.09956
H          2.97686        0.60641        1.71469
H          2.56579       -1.69894       -1.89457
H         -1.55423        0.43199        2.32234
H         -0.98612        1.65671        3.61429
C          4.50441       -0.68370       -0.13004
O         -1.79451        1.97522       -0.22424
C         -0.98606        2.74033       -0.74472
O          0.15952        2.36706       -1.24179
C         -1.25252        4.20442       -0.83245
H         -2.31054        4.40673       -0.63640
H         -0.63640        4.71352       -0.07513
H         -0.95127        4.58698       -1.81658
H          0.30258        1.40748       -1.04455
Pd        -1.80343       -0.09062       -0.07388
O         -3.93435       -0.75031       -0.19682
C         -3.47803       -1.91221       -0.10441
O         -2.21259       -2.08363       -0.01548
C         -4.36763       -3.11529       -0.06693
H         -4.42767       -3.48018        0.96981
H         -5.37431       -2.85532       -0.41507
H         -3.93898       -3.92167       -0.67702
C          4.98785       -1.49187       -1.33463
H          6.08637       -1.55864       -1.32085
H          4.59289       -2.51911       -1.32235
H          4.69584       -1.02197       -2.28626
C          5.12572        0.71851       -0.20626
H          4.84531        1.33695        0.65925
H          6.22522        0.65159       -0.22759
H          4.79667        1.24478       -1.11553
C          4.97923       -1.38876        1.14877
H          6.07633       -1.48995        1.14730
H          4.69578       -0.82998        2.05292
H          4.54139       -2.39558        1.22689
