34
Styrene_H13_Int2_Sub22.log	Energy: -585662.1672069
C         -0.38572       -0.56564       -0.61301
C         -1.57942       -0.03875       -0.11591
C         -0.42065       -1.70621       -1.43226
C         -2.82007       -0.63829       -0.40257
H         -1.54205        0.87232        0.48598
C         -1.64426       -2.30114       -1.73430
H          0.50420       -2.12413       -1.83877
C         -4.09354       -0.11749        0.10612
C         -2.82802       -1.77865       -1.21995
H         -1.67487       -3.18339       -2.37926
C         -4.27762        0.96315        0.87879
H         -4.97919       -0.69046       -0.19575
H         -3.78234       -2.25599       -1.45833
H         -3.40643        1.55262        1.18867
C         -5.60185        1.44724        1.36021
O          2.28498       -1.43800        0.11132
C          1.92617       -2.31436        0.89742
O          0.76482       -2.32124        1.49142
C          2.80340       -3.47008        1.23371
H          3.80137       -3.32196        0.80909
H          2.85720       -3.58893        2.32482
H          2.35260       -4.38784        0.82679
H          0.21217       -1.59743        1.10849
Pd         1.28796        0.35413       -0.19369
O          2.70938        2.05129        0.15054
C          1.72734        2.78984       -0.08311
O          0.58938        2.25887       -0.33631
C          1.84184        4.28194       -0.10653
H          1.90125        4.61510       -1.15404
H          0.94774        4.73913        0.33763
H          2.74855        4.60212        0.42048
H         -5.79840        2.47671        1.01521
H         -5.63875        1.47929        2.46255
H         -6.42344        0.80592        1.00864
