40
Styrene_H13_Int2_Sub5.log	Energy: -634959.8496810
C          0.68371        0.29641        0.24289
C          1.46328        1.24629       -0.42026
C          1.20582       -0.40441        1.35485
C          2.78399        1.52968       -0.02115
H          1.03468        1.78557       -1.26913
C          2.51659       -0.11786        1.74686
C          0.33727       -1.38337        2.11895
C          3.62863        2.51850       -0.70024
C          3.29255        0.82334        1.07392
H          2.95024       -0.64338        2.60064
C          3.29208        3.29936       -1.73383
H          4.64170        2.60897       -0.29136
H          4.31603        1.01669        1.40638
H          2.29944        3.27263       -2.19149
H          4.00904        4.00553       -2.15820
O         -0.66226       -1.75661       -1.38800
C          0.38145       -2.20914       -1.85553
O          1.55025       -1.65137       -1.72090
C          0.39136       -3.48129       -2.63404
H         -0.63100       -3.84710       -2.77240
H          0.87848       -3.31431       -3.60517
H          0.99162       -4.22805       -2.09321
H          1.47466       -0.84112       -1.15435
Pd        -1.14521       -0.00831       -0.38873
O         -3.34412        0.36177       -0.66561
C         -3.16209        1.36528        0.05758
O         -1.98462        1.62010        0.49600
C         -4.27655        2.28800        0.44115
H         -4.38442        2.29220        1.53565
H         -4.02682        3.31398        0.13490
H         -5.21475        1.96954       -0.02769
H         -0.33232       -1.85174        1.37543
C          1.11396       -2.49625        2.81171
H          0.41929       -3.23573        3.23802
H          1.78489       -3.02083        2.11379
H          1.72512       -2.11358        3.64462
C         -0.55250       -0.62326        3.10713
H         -1.14446        0.14820        2.59236
H         -1.24509       -1.31056        3.61833
H          0.06201       -0.12322        3.87291
