47
Styrene_H13_Int2_Sub11.log	Energy: -708157.5306592
C         -0.53871        0.10742       -0.15473
C          0.10724       -0.81404        0.67200
C          0.24301        1.01746       -0.87714
C          1.50603       -0.85064        0.79505
H         -0.48950       -1.52972        1.24252
C          1.63120        0.99468       -0.75605
H         -0.22646        1.75118       -1.53833
C          2.12526       -1.86021        1.67011
C          2.29038        0.08081        0.07242
H          2.21486        1.71418       -1.33320
C          1.62005       -3.06962        1.94200
H          3.08284       -1.58984        2.12795
C          3.80115        0.03881        0.14377
H          0.69016       -3.42381        1.48737
H          2.13415       -3.75317        2.62190
O         -2.64546        2.10216       -0.29276
C         -2.18482        2.83515        0.58215
O         -1.35714        2.42785        1.50417
C         -2.53402        4.28137        0.65396
H         -3.32909        4.51325       -0.06179
H         -2.84346        4.53686        1.67697
H         -1.63602        4.87530        0.42621
H         -1.08621        1.50071        1.29330
Pd        -2.48676        0.03563       -0.30628
O         -4.53534       -0.85445       -0.47009
C         -3.95291       -1.95903       -0.39709
O         -2.67912       -1.98906       -0.26560
C         -4.69370       -3.25647       -0.48666
H         -4.56667       -3.66718       -1.50003
H         -4.27356       -3.98320        0.22132
H         -5.76205       -3.09839       -0.29706
H          4.07919       -0.14340        1.19846
C          4.50329        1.33506       -0.26169
H          4.10486        2.18044        0.32297
H          4.28986        1.55661       -1.32231
C          6.01417        1.22287       -0.08715
H          6.50115        2.16452       -0.38825
H          6.24763        1.08249        0.98400
C          6.58021        0.05264       -0.88425
H          7.66613       -0.03725       -0.71885
H          6.44599        0.25364       -1.96274
C          5.87622       -1.25209       -0.52892
H          6.11740       -1.52182        0.51563
H          6.25384       -2.07705       -1.15458
C          4.36332       -1.13523       -0.67363
H          4.09570       -0.97645       -1.73384
H          3.87255       -2.07285       -0.36919
