47
Styrene_H9_Int2_Sub19.log	Energy: -708158.7362304
C         -0.39271       -0.24334       -0.06668
C          0.46802        0.24385        0.94877
C          0.17476       -0.87594       -1.18041
C          0.01863        0.89389        2.18908
C          1.85538        0.11241        0.76819
C          1.55702       -1.00404       -1.32269
H         -0.48030       -1.28133       -1.95629
C         -1.18096        0.80752        2.77675
H          0.79530        1.48053        2.69458
C          2.42391       -0.50341       -0.34880
H          2.50920        0.50729        1.55218
H          1.96632       -1.49793       -2.20874
H         -1.99103        0.20190        2.35625
H         -1.38283        1.33405        3.71278
C          3.92049       -0.62481       -0.49959
O         -2.38050        1.95663       -0.03765
C         -1.60763        2.78150       -0.51931
O         -0.47483        2.47786       -1.08791
C         -1.90552        4.24135       -0.47111
H         -2.95892        4.40236       -0.21975
H         -1.27062        4.69801        0.30393
H         -1.64984        4.71284       -1.42921
H         -0.30676        1.50833       -0.97963
Pd        -2.34886       -0.11408       -0.06440
O         -4.47391       -0.79946       -0.14094
C         -3.99747       -1.95658       -0.16971
O         -2.72690       -2.11204       -0.15734
C         -4.86734       -3.17439       -0.19078
H         -4.87097       -3.62526        0.81336
H         -5.89353       -2.90446       -0.46693
H         -4.45827       -3.91941       -0.88633
H          4.10913       -1.14241       -1.45797
C          4.55162       -1.47915        0.60705
H          4.06914       -2.46940        0.62924
H          4.34148       -1.01181        1.58592
C          6.05919       -1.61514        0.42589
H          6.48796       -2.20792        1.25008
H          6.26294       -2.18186       -0.50088
C          6.73779       -0.25247        0.33882
H          7.82051       -0.37113        0.17097
H          6.62912        0.26830        1.30778
C          6.11924        0.60443       -0.76036
H          6.32574        0.13999       -1.74180
H          6.59089        1.60024       -0.78527
C          4.61156        0.74221       -0.58090
H          4.40372        1.30540        0.34677
H          4.17233        1.32986       -1.40327
