34
Styrene_H9_Int2_Sub9.log	Energy: -772406.8384695
C         -0.62553        1.42235       -0.16160
C          0.62747        1.82108       -0.69189
C         -1.62267        2.39501        0.00777
C          1.76669        0.92593       -0.91212
C          0.83278        3.18111       -0.99685
C         -1.40180        3.73348       -0.31384
H         -2.60173        2.09238        0.38780
C          1.76104       -0.40792       -1.01934
H          2.73489        1.42927       -1.00677
C         -0.16450        4.12988       -0.81864
H          1.80616        3.48538       -1.39197
H         -2.19963        4.46579       -0.16726
H          0.84191       -1.00156       -0.98294
C          3.01381       -1.20178       -1.14121
H          0.02305        5.17586       -1.07080
O          0.33027       -0.79858        1.65793
C          1.07786       -0.07517        2.31266
O          1.01512        1.22687        2.30463
C          2.16088       -0.65928        3.14953
H          1.79592       -1.56882        3.64201
H          2.97152       -0.95560        2.46482
H          2.54210        0.06542        3.87730
H          0.35230        1.51455        1.63266
Pd        -1.18577       -0.40136        0.31500
O         -2.46288       -2.21649        0.31153
C         -3.16668       -1.60838       -0.52663
O         -2.83006       -0.42272       -0.87706
C         -4.37322       -2.22866       -1.15475
H         -4.11285       -2.55769       -2.17240
H         -4.70175       -3.09669       -0.57100
H         -5.17845       -1.48705       -1.24164
F          4.09632       -0.44681       -1.35112
F          2.94185       -2.09167       -2.13348
F          3.24358       -1.90344       -0.01145
