47
Styrene_H13_Int2_Sub19.log	Energy: -708161.7129282
C          1.30268       -0.75518       -0.76718
C         -0.07196       -0.61600       -0.56596
C          1.78959       -1.86744       -1.47372
C         -0.98245       -1.57899       -1.03958
H         -0.44201        0.27419       -0.05185
C          0.89651       -2.82000       -1.96110
H          2.86230       -1.98547       -1.64883
C         -2.43114       -1.47034       -0.83750
C         -0.47140       -2.68161       -1.74049
H          1.27238       -3.68129       -2.51984
C         -3.09029       -0.49429       -0.19683
H         -3.02064       -2.28941       -1.26791
H         -1.16352       -3.43744       -2.12142
H         -2.52982        0.34066        0.24370
C         -4.57340       -0.43513       -0.02179
O          3.87873       -0.73785        0.56776
C          3.62960       -1.66388        1.33919
O          2.42057       -2.01871        1.67667
C          4.71196       -2.48030        1.95600
H          5.68921       -2.03941        1.73511
H          4.55117       -2.54910        3.04088
H          4.65916       -3.50270        1.55232
H          1.77817       -1.51275        1.12225
Pd         2.49049        0.64845       -0.10314
O          3.22966        2.71091        0.36475
C          2.15130        3.10238       -0.13368
O          1.30923        2.23856       -0.56450
C          1.82011        4.55535       -0.27231
H          2.01126        4.86346       -1.31170
H          0.75489        4.72405       -0.06603
H          2.44861        5.15429        0.39751
H         -5.01572       -1.32376       -0.50980
C         -5.16585        0.81273       -0.69156
H         -4.91505        0.80873       -1.76433
H         -4.67953        1.70852       -0.26269
C         -6.67405        0.90915       -0.48979
H         -7.05994        1.82968       -0.95708
H         -7.16373        0.06799       -1.01340
C         -7.04639        0.86361        0.98791
H         -8.14117        0.89527        1.11072
H         -6.65120        1.76612        1.48891
C         -6.46991       -0.37560        1.66350
H         -6.94995       -1.27636        1.23962
H         -6.70948       -0.37580        2.73931
C         -4.96164       -0.47287        1.46304
H         -4.46734        0.37126        1.97895
H         -4.56561       -1.39213        1.92372
