24
Thiophene_H6_Int2_Sub18.log	Energy: -1002046.0206599
C          0.60249       -0.48600        0.27339
C          1.14021       -1.05988        1.40725
S          1.81985       -0.33526       -0.95732
C          2.52924       -1.36812        1.29594
H          0.54734       -1.27384        2.29851
C          3.03166       -1.02771        0.06940
H          3.13359       -1.82227        2.08134
Cl         4.64045       -1.22888       -0.48061
O         -0.63712        2.00981       -0.44782
C          0.16071        2.69452        0.19712
O          0.90957        2.23431        1.15488
C          0.34070        4.14355       -0.09764
H          1.31262        4.27800       -0.59701
H         -0.46212        4.49911       -0.75149
H          0.37049        4.71578        0.83933
H          0.83144        1.24281        1.18797
Pd        -1.23187        0.07394       -0.08698
O         -3.40026        0.02140       -0.34374
C         -3.32359       -1.19965       -0.06291
O         -2.17551       -1.69254        0.21220
C         -4.51874       -2.09484       -0.06880
H         -4.52792       -2.66455       -1.01069
H         -4.45670       -2.81584        0.75691
H         -5.43781       -1.50040       -0.00312
