33
Thiophene_H6_Int2_Sub5.log	Energy: -787679.6542870
C          0.76450       -0.35670       -0.64667
C          1.44907       -1.34400        0.04270
S          1.51551       -0.03141       -2.17520
C          2.58771       -1.81708       -0.68969
C          0.99630       -1.89343        1.37501
C          2.74930       -1.19997       -1.89965
H          3.26483       -2.59110       -0.32425
H          3.53088       -1.37040       -2.63958
O          0.03053        2.31184        0.24195
C          1.15043        2.53872        0.70685
O          2.06338        1.63548        0.89423
C          1.55145        3.92386        1.08667
H          2.31501        4.27623        0.37662
H          0.68345        4.59042        1.06014
H          2.01113        3.91703        2.08449
H          1.75708        0.76182        0.50881
Pd        -0.90543        0.52630       -0.15396
O         -3.05080        0.81225        0.26346
C         -3.18611       -0.38983       -0.06435
O         -2.14815       -1.05493       -0.41091
C         -4.51750       -1.06802       -0.08398
H         -4.81987       -1.23007       -1.12961
H         -4.44212       -2.05438        0.39385
H         -5.26779       -0.44799        0.42039
H          0.28765       -1.15597        1.79197
C          0.22319       -3.19757        1.17521
H         -0.13502       -3.59160        2.13986
H         -0.64521       -3.03068        0.52189
H          0.86234       -3.96657        0.71194
C          2.14821       -2.05427        2.36291
H          2.69231       -1.10772        2.50601
H          1.77491       -2.38455        3.34454
H          2.87312       -2.80898        2.01817
