27
Thiophene_H6_Int2_Sub6.log	Energy: -738379.7185061
C          0.82145       -0.84348       -0.15309
C          1.21046       -1.78096        0.78943
S          1.90429       -0.84742       -1.51151
C          2.40176       -2.47500        0.39533
C          0.47387       -2.05902        2.06387
C          2.88844       -2.07788       -0.81898
H          2.87190       -3.25032        1.00403
H          3.76801       -2.45005       -1.34359
O          0.43936        2.01281       -0.23480
C          1.47683        2.24427        0.39117
O          2.11632        1.36074        1.09654
C          2.09925        3.59824        0.36562
H          3.00137        3.55375       -0.26386
H          1.39761        4.32953       -0.04856
H          2.41743        3.88403        1.37715
H          1.71586        0.45969        0.93238
Pd        -0.74076        0.32937       -0.15932
O         -2.83228        1.00552       -0.12651
C         -3.13564       -0.20995       -0.07244
O         -2.19593       -1.07861       -0.04729
C         -4.55482       -0.67757       -0.06288
H         -4.81151       -1.04967       -1.06650
H         -4.67293       -1.51203        0.64114
H         -5.22573        0.15048        0.19481
H          0.23242       -3.13028        2.14561
H         -0.47135       -1.50094        2.09920
H          1.07414       -1.79234        2.94941
