30
Toluene_H10_Int2_Sub68.log	Energy: -537130.2533781
C          0.88174       -0.77057       -0.27227
C          1.19335       -1.66268        0.77647
C          1.70437       -0.71139       -1.40634
C          2.33761       -2.46320        0.64875
C          0.32163       -1.76522        1.99586
C          2.83155       -1.52571       -1.51634
H          1.46039       -0.01834       -2.21679
C          3.14948       -2.40227       -0.48151
H          2.58888       -3.15458        1.45846
H          0.70153       -2.52202        2.69646
H          0.26472       -0.80302        2.53066
H         -0.70772       -2.02764        1.70791
H          3.45943       -1.47181       -2.40928
H          4.03241       -3.04193       -0.55267
O          0.33699        2.10428       -0.24707
C          1.39406        2.40303        0.30694
O          2.18529        1.54234        0.88254
C          1.87166        3.81439        0.35797
H          1.10834        4.48605       -0.04752
H          2.11400        4.08325        1.39581
H          2.80043        3.89958       -0.22574
H          1.85410        0.62609        0.69881
Pd        -0.73492        0.33379       -0.20553
O         -2.91459        0.84748       -0.14486
C         -3.10581       -0.38859       -0.11048
O         -2.09973       -1.18015       -0.12468
C         -4.48465       -0.96820       -0.04141
H         -4.94805       -0.67646        0.91270
H         -5.09887       -0.54145       -0.84665
H         -4.45704       -2.06128       -0.12076
