30
Toluene_H10_Int2_Sub70.log	Energy: -723584.4772915
C         -1.00091       -0.41034       -1.10978
C         -1.02209        0.96178       -1.43662
C         -2.10288       -1.20567       -1.44068
C         -2.16115        1.49985       -2.05340
C          0.13998        1.84761       -1.17079
C         -3.22064       -0.65814       -2.07363
H         -2.09144       -2.27301       -1.20449
C         -3.25393        0.70114       -2.37544
H         -2.17888        2.56769       -2.29055
H          0.04368        2.82874       -1.64861
I          0.36425        2.32829        0.96468
H          1.10025        1.37484       -1.40573
H         -4.06804       -1.29984       -2.32914
H         -4.12716        1.13935       -2.86382
O         -0.77160       -2.20245        1.06027
C         -1.54445       -1.68244        1.86439
O         -1.62926       -0.40237        2.08049
C         -2.49243       -2.50568        2.66643
H         -2.21486       -3.56312        2.60791
H         -2.51247       -2.15812        3.70770
H         -3.50268       -2.36772        2.25063
H         -1.00419        0.10512        1.51060
Pd         0.53079       -1.23840       -0.21286
O          2.62028       -1.83901        0.28784
C          2.96823       -1.10694       -0.66304
O          2.06782       -0.49738       -1.34383
C          4.40259       -0.90060       -1.03302
H          4.67164        0.15116       -0.85434
H          5.04877       -1.55460       -0.43630
H          4.54170       -1.09711       -2.10540
