54
Toluene_H10_Int2_Sub48.log	Energy: -781380.9440437
C          1.30560       -1.08366       -0.90414
C          0.17688       -0.88134       -1.72947
C          2.04100       -2.27560       -1.00771
C         -0.18275       -1.90937       -2.61266
C         -0.60762        0.40558       -1.72537
C          1.65662       -3.28589       -1.89452
H          2.93589       -2.41597       -0.39356
C          0.53435       -3.10163       -2.69523
H         -1.04401       -1.75638       -3.26908
H         -0.93458        0.61264       -2.75854
C         -1.85734        0.46991       -0.82782
H          0.06862        1.22738       -1.44377
H          2.24409       -4.20491       -1.96153
H          0.22340       -3.87811       -3.39796
O          1.52067       -0.77588        2.06234
C          0.86648       -1.77191        2.35696
O          0.42077       -2.64190        1.49172
C          0.48385       -2.05722        3.76939
H          1.14050       -1.51008        4.45425
H         -0.55116       -1.70833        3.91462
H          0.50553       -3.13610        3.96838
H          0.70171       -2.38117        0.57818
Pd         1.93944        0.30097        0.32106
O          2.82142        2.31009        0.95592
C          2.84079        2.56284       -0.26704
O          2.42189        1.68485       -1.10348
C          3.33782        3.86795       -0.80787
H          2.54352        4.34513       -1.39994
H          3.64828        4.52754        0.01070
H          4.18349        3.68409       -1.48635
C         -4.17636       -0.42479       -0.38254
C         -3.80578       -0.67972        1.08121
C         -2.76399        0.34951        1.52709
H         -4.70454       -0.61416        1.71795
H         -3.40258       -1.70056        1.19696
C         -1.51884        0.21716        0.64725
H         -0.73671        0.92382        0.97635
H         -1.10493       -0.79750        0.74887
C         -2.92330       -0.55159       -1.25355
H         -3.18396       -0.39239       -2.31508
H         -2.51438       -1.57283       -1.17416
C         -4.75678        0.98493       -0.52286
H         -4.92328       -1.16754       -0.70926
C         -3.34171        1.75983        1.38782
H         -2.48705        0.16645        2.57993
C         -3.71369        2.01274       -0.07581
H         -4.23055        1.87292        2.03169
H         -2.60252        2.50594        1.72531
H         -4.12545        3.03014       -0.18268
C         -2.46265        1.87824       -0.94633
H         -5.04770        1.17174       -1.57065
H         -5.67194        1.08199        0.08584
H         -1.70726        2.62488       -0.64560
H         -2.71003        2.08383       -2.00253
