46
Toluene_H10_Int2_Sub155.log	Energy: -684281.4616219
C         -0.40895       -0.03061       -0.25381
C          0.35817       -0.52776        0.82205
C          0.24158        0.42996       -1.40533
C          1.75282       -0.52966        0.70122
C         -0.29916       -1.05179        2.06732
C          1.63261        0.40525       -1.50128
H         -0.34565        0.81653       -2.24345
C          2.41230       -0.07273       -0.44552
H          2.34090       -0.91174        1.54163
H          0.44458       -1.41772        2.78910
H         -0.90024       -0.27140        2.56199
H         -0.99045       -1.87091        1.81737
H          2.12029        0.76611       -2.41163
C          3.91848       -0.09313       -0.53966
O         -2.50137        2.01160       -0.32949
C         -1.80142        2.88738        0.17740
O         -0.65386        2.66381        0.75229
C         -2.22023        4.31837        0.16488
H         -3.23829        4.41032       -0.22675
H         -2.15620        4.72966        1.18210
H         -1.52038        4.89051       -0.46246
H         -0.40109        1.71462        0.60920
Pd        -2.36648       -0.05001       -0.19174
O         -4.45126       -0.88042       -0.09369
C         -3.89615       -1.99769       -0.01107
O         -2.61675       -2.06684       -0.01464
C         -4.67720       -3.27219        0.07311
H         -4.26276       -3.91490        0.86192
H         -5.73570       -3.05905        0.26285
H         -4.57874       -3.81525       -0.87896
H          4.18757        0.30853       -1.53389
C          4.48962       -1.51437       -0.45741
H          4.03035       -2.14214       -1.23772
H          4.19942       -1.96303        0.50958
C          6.00906       -1.52154       -0.58142
H          6.39215       -2.55078       -0.48933
H          6.29163       -1.17597       -1.59257
C          6.65983       -0.61462        0.45732
H          7.75428       -0.60403        0.32820
H          6.47021       -1.02551        1.46582
C          6.10092        0.80208        0.38262
H          6.38782        1.25452       -0.58417
H          6.54957        1.43588        1.16479
C          4.58143        0.81151        0.50691
H          4.29455        0.46351        1.51555
H          4.18800        1.83651        0.41122
