34
Toluene_H10_Int2_Sub171.log	Energy: -608947.7916617
C          0.61513       -0.23100       -0.07747
C          1.15778       -0.89199        1.05086
C          1.46105        0.09830       -1.14096
C          2.52202       -1.17869        1.06972
C          0.28679       -1.28734        2.20862
C          2.82547       -0.20211       -1.12008
H          1.05317        0.60681       -2.01962
C          3.36099       -0.84661       -0.00199
H          2.97089       -1.68309        1.92878
H          0.86730       -1.78908        2.99509
H         -0.20714       -0.40794        2.65274
H         -0.51455       -1.95993        1.86686
H          3.44840        0.06996       -1.97254
O          4.66075       -1.18206        0.13681
O         -1.07577        2.15555       -0.34764
C         -0.28624        2.89112        0.24455
O          0.74268        2.46278        0.91737
C         -0.44842        4.37337        0.23013
H         -1.38110        4.64642       -0.27365
H         -0.44000        4.75275        1.26181
H          0.41030        4.82419       -0.28921
H          0.83141        1.48227        0.77064
Pd        -1.31365        0.10367       -0.22852
O         -3.50740       -0.33940       -0.37253
C         -3.17380       -1.53820       -0.24844
O         -1.93490       -1.83541       -0.11409
C         -4.17486       -2.65112       -0.26937
H         -3.97873       -3.34706        0.55793
H         -5.19295       -2.24974       -0.20454
H         -4.06274       -3.21581       -1.20719
C          5.54439       -0.89092       -0.90751
H          5.25893       -1.40311       -1.84363
H          5.60702        0.19445       -1.10437
H          6.53294       -1.25070       -0.59466
