36
Toluene_H10_Int2_Sub180.log	Energy: -688279.6656070
C          0.01665       -0.07639       -0.15629
C          0.69275       -0.65516        0.94134
C          0.75674        0.39316       -1.24975
C          2.08768       -0.74370        0.90417
C         -0.06178       -1.18681        2.12601
C          2.14621        0.30241       -1.27796
H          0.24151        0.85169       -2.09827
C          2.80724       -0.27397       -0.19452
H          2.63823       -1.18338        1.73724
H          0.61869       -1.60914        2.87776
H         -0.65602       -0.39370        2.60791
H         -0.77272       -1.96299        1.80486
H          2.70507        0.69855       -2.12770
N          4.21723       -0.38487       -0.19308
O         -1.98731        2.05353       -0.33994
C         -1.31015        2.89088        0.25604
O         -0.23905        2.60555        0.94144
C         -1.66733        4.33730        0.23546
H         -2.61744        4.48423       -0.28778
H         -1.73128        4.71258        1.26678
H         -0.86499        4.89922       -0.26532
H         -0.01739        1.65035        0.80717
Pd        -1.94088       -0.00964       -0.21990
O         -4.04805       -0.73011       -0.27997
C         -3.56171       -1.87874       -0.18222
O         -2.28944       -2.01218       -0.10047
C         -4.41185       -3.10916       -0.17647
H         -4.08709       -3.78569        0.62592
H         -5.46807       -2.84204       -0.05502
H         -4.27660       -3.64126       -1.13022
N          4.89736       -0.44156        0.95995
N          6.14904       -0.54470        0.68095
C          5.06700       -0.45482       -1.24922
C          6.30795       -0.55691       -0.66632
H          4.73057       -0.45639       -2.28112
H          7.28716       -0.64359       -1.13165
