34
Toluene_H10_Int2_Sub126.log	Energy: -608948.0271114
C          0.61370       -0.56668        0.26526
C          0.78115       -1.18252        1.51835
C          1.66111       -0.53719       -0.66917
C          2.03465       -1.75589        1.79511
C         -0.33696       -1.24865        2.52147
C          2.89174       -1.13202       -0.37197
H          1.50142       -0.04877       -1.63184
C          3.07386       -1.73764        0.87804
H          2.19080       -2.23775        2.76478
H         -0.03416       -1.80906        3.41735
H         -0.65547       -0.24366        2.84456
H         -1.22086       -1.73442        2.08079
O          3.94715       -1.15916       -1.21274
H          4.04166       -2.18928        1.10277
O         -0.26573        2.14061       -0.31462
C          0.56295        2.67332        0.42293
O          1.26109        2.03873        1.32092
C          0.84760        4.13473        0.33881
H          0.15770        4.61426       -0.36284
H          0.75881        4.58412        1.33801
H          1.88709        4.27944        0.00861
H          1.10070        1.06299        1.23653
Pd        -1.09622        0.24593       -0.22700
O         -3.27456        0.39947       -0.74228
C         -3.30661       -0.83556       -0.54790
O         -2.23509       -1.44591       -0.20104
C         -4.55783       -1.63853       -0.72386
H         -4.69760       -2.30694        0.13691
H         -5.42292       -0.97596       -0.84384
H         -4.45423       -2.27187       -1.61776
C          3.80841       -0.59064       -2.48312
H          3.00507       -1.07521       -3.06577
H          3.59916        0.49304       -2.42977
H          4.76370       -0.74021       -3.00238
