31
Toluene_H10_Int2_Sub174.log	Energy: -786925.6364304
C          0.62069       -0.19972       -0.16969
C          1.23500       -0.87784        0.90472
C          1.40460        0.19913       -1.26159
C          2.61358       -1.11644        0.85289
C          0.43567       -1.34571        2.08749
C          2.77201       -0.05660       -1.30793
H          0.93860        0.72239       -2.10164
C          3.38888       -0.71786       -0.24046
H          3.08651       -1.63411        1.69260
H          1.06811       -1.86499        2.82103
H         -0.05483       -0.50001        2.59614
H         -0.36569       -2.02467        1.75900
H          3.35914        0.25824       -2.17434
S          5.12960       -0.99916       -0.33882
O         -1.12818        2.14587       -0.30608
C         -0.34262        2.88647        0.28509
O          0.70176        2.46510        0.93953
C         -0.52556        4.36579        0.29045
H         -1.47793        4.63033       -0.17989
H         -0.48579        4.73751        1.32403
H          0.30880        4.83139       -0.25521
H          0.80767        1.49136        0.77671
Pd        -1.31915        0.08853       -0.21678
O         -3.50040       -0.39303       -0.26661
C         -3.14186       -1.58908       -0.18181
O         -1.89338       -1.86532       -0.11748
C         -4.13694       -2.70660       -0.14142
H         -4.73028       -2.62412        0.78127
H         -4.83182       -2.60520       -0.98676
H         -3.63607       -3.68127       -0.17347
H          5.24188       -1.69301        0.81225
