40
Toluene_H10_Int2_Sub82.log	Energy: -682009.1849941
C          0.14792       -1.57584        0.11061
C         -0.37723       -1.72209       -1.19206
C          0.06993       -2.64728        1.01025
C         -0.97710       -2.93578       -1.54358
C         -0.29702       -0.58782       -2.18641
C         -0.53135       -3.85371        0.63901
H          0.48372       -2.54176        2.01719
C         -1.05767       -3.99642       -0.64072
H         -1.38378       -3.05164       -2.55273
H         -0.63674       -0.94898       -3.17040
C         -1.12095        0.61201       -1.78006
H          0.75621       -0.28565       -2.29436
H         -0.58278       -4.67849        1.35413
H         -1.53070       -4.93410       -0.94156
O         -0.43189        0.80619        1.82226
C         -1.62783        0.55372        1.95545
O         -2.20892       -0.51031        1.47948
C         -2.53576        1.49056        2.67510
H         -1.95830        2.12164        3.35927
H         -3.00942        2.13174        1.91498
H         -3.32546        0.94176        3.20278
H         -1.54791       -1.04820        0.97805
Pd         1.07575        0.07093        0.61052
O          2.74369        1.59651        0.61289
C          3.30662        0.82767       -0.19578
O          2.71922       -0.25449       -0.55237
C          4.66279        1.11707       -0.76108
H          4.65432        0.96905       -1.84985
H          4.97041        2.13937       -0.51190
H          5.38614        0.40317       -0.33928
C         -0.52675        1.85972       -1.56121
C         -2.50177        0.48862       -1.58520
C         -2.66172        2.81650       -0.95703
C         -3.26777        1.57898       -1.18002
C         -1.28791        2.95309       -1.14931
H          0.55057        1.97444       -1.70500
H         -0.80065        3.91520       -0.97486
H         -3.26086        3.67435       -0.64095
H         -4.34474        1.46129       -1.03539
H         -2.97964       -0.48293       -1.73988
