32
Toluene_H10_Int2_Sub149.log	Energy: -608199.2024661
C          0.65818       -0.28525       -0.12010
C          1.19472       -0.97651        0.98899
C          1.49023        0.08083       -1.19342
C          2.56322       -1.26936        0.98043
C          0.32817       -1.39751        2.14181
C          2.84368       -0.22855       -1.18478
H          1.06507        0.61612       -2.04722
C          3.38732       -0.90546       -0.08725
H          3.00091       -1.80183        1.83194
H          0.90923       -1.93850        2.90158
H         -0.14345       -0.52830        2.62833
H         -0.48965       -2.04332        1.78833
H          3.50352        0.04428       -2.01182
C          4.82717       -1.23243       -0.05523
O         -0.93281        2.15435       -0.33207
C         -0.14228        2.86105        0.29201
O          0.82558        2.39320        1.03038
C         -0.22230        4.34783        0.24392
H         -1.13273        4.66002       -0.27745
H         -0.19848        4.75272        1.26526
H          0.66428        4.73467       -0.28092
H          0.88032        1.41447        0.90752
Pd        -1.25305        0.11394       -0.22652
O         -3.45008       -0.22931       -0.34552
C         -3.17378       -1.44596       -0.24335
O         -1.94734       -1.79927       -0.13531
C         -4.23830       -2.49692       -0.23306
H         -4.86198       -2.36569        0.66356
H         -4.89044       -2.36147       -1.10720
H         -3.79976       -3.50162       -0.23595
O          5.61477       -0.95048       -0.92391
H          5.15646       -1.78134        0.86556
