36
TwoHchromene_H8_Int2_Sub9.log	Energy: -843477.3201289
C          0.09466       -0.37096       -0.14948
C         -0.38673       -1.49064       -0.83784
C         -0.83916        0.44599        0.50815
C         -1.75053       -1.77335       -0.90160
H          0.32571       -2.17076       -1.31066
C         -2.22624        0.20213        0.43158
O         -0.38133        1.55000        1.14863
C         -2.66570       -0.92971       -0.27933
H         -2.10442       -2.65636       -1.43424
C         -3.11120        1.18721        1.05089
C         -1.14885        2.03240        2.23581
C         -4.13570       -1.23617       -0.36629
C         -2.60465        2.08873        1.90243
H         -4.17158        1.18808        0.79773
H         -0.97220        1.38866        3.12329
H         -0.74300        3.02626        2.47105
H         -3.23435        2.84330        2.38013
O          1.99804        1.91306       -0.39189
C          1.27234        2.52853       -1.16851
O          0.35187        1.96698       -1.90331
C          1.37545        4.00553       -1.32364
H          2.32194        4.36323       -0.90539
H          1.27313        4.28915       -2.37913
H          0.53731        4.45971       -0.77239
H          0.26801        1.02067       -1.63699
Pd         2.04001       -0.11289       -0.02323
O          4.16866       -0.65743        0.25483
C          3.75431       -1.82861        0.41167
O          2.49718       -2.05865        0.32040
C          4.67379       -2.96339        0.73029
H          4.61817       -3.17098        1.80993
H          4.35518       -3.87043        0.19980
H          5.70608       -2.69972        0.47106
F         -4.69426       -1.34571        0.84578
F         -4.37471       -2.37574       -1.01652
F         -4.80952       -0.26917       -1.01144
