45
TwoHchromene_H8_deriv1_Int2_Sub12.log	Energy: -1019010.4934907
C          0.25272       -0.09367        0.13499
C          1.30621       -1.00277        0.26737
C          0.58013        1.24492       -0.10984
C          2.65950       -0.62720        0.18832
H          1.05131       -2.05599        0.40913
C          1.91614        1.66358       -0.19637
O         -0.42646        2.16532       -0.17777
C          2.93949        0.71776       -0.04161
C          3.74538       -1.69446        0.33359
C          2.16213        3.07505       -0.42229
C         -0.21778        3.32550       -0.89092
H          3.96961        1.06957       -0.11354
C          1.14475        3.89293       -0.73744
H          3.18508        3.45165       -0.34025
Cl        -0.52682        3.02089       -2.68862
H         -1.01832        4.01813       -0.60794
H          1.28349        4.95426       -0.95020
O         -2.36700        0.66361        1.34201
C         -1.84562        1.17099        2.33157
O         -0.63437        0.90085        2.73442
C         -2.56771        2.17513        3.16135
H         -3.63535        2.16573        2.91905
H         -2.40076        1.97924        4.22871
H         -2.14881        3.16808        2.93585
H         -0.19505        0.33101        2.05613
Pd        -1.58592       -0.79174        0.11048
O         -3.25569       -2.15246       -0.41523
C         -2.40264       -2.79969       -1.06403
O         -1.18424       -2.40438       -1.05449
C         -2.76440       -4.00176       -1.87624
H         -2.86973       -3.69633       -2.92865
H         -1.96430       -4.75176       -1.82393
H         -3.71793       -4.41969       -1.53176
C          5.14984       -1.09720        0.24362
H          5.90087       -1.89368        0.35694
H          5.32631       -0.61278       -0.72887
H          5.33035       -0.35554        1.03706
C          3.59855       -2.38590        1.69652
H          2.61726       -2.87109        1.80400
H          4.37028       -3.16254        1.81875
H          3.70833       -1.66171        2.51860
C          3.58149       -2.72872       -0.78990
H          4.34629       -3.51691       -0.70147
H          2.59350       -3.21125       -0.75969
H          3.68906       -2.25392       -1.77703
