38
TwoHchromene_H8_deriv1_Int2_Sub15.log	Energy: -979770.7010128
C         -0.14372        0.62586        0.15323
C          0.02802        2.00262        0.34265
C         -1.43074        0.14273       -0.08888
C         -1.05633        2.90394        0.29598
H          1.04024        2.38186        0.49001
C         -2.53461        1.01281       -0.12749
O         -1.62697       -1.21132       -0.19096
C         -2.33889        2.38069        0.06625
N         -0.87501        4.25700        0.44715
C         -3.83978        0.42256       -0.36412
C         -2.69961       -1.66333       -0.91850
H         -3.20175        3.05132        0.02080
C         -3.93754       -0.86506       -0.73178
H         -4.73019        1.04689       -0.25316
Cl        -2.28824       -1.67494       -2.72701
H         -2.82169       -2.72599       -0.68031
H         -4.89233       -1.34162       -0.96094
O          0.69848       -1.95354        1.36848
C         -0.01738       -1.80727        2.35546
O         -0.49471       -0.65800        2.74688
C         -0.42317       -2.96741        3.19752
H          0.20831       -3.83350        2.97417
H         -0.37371       -2.70310        4.26197
H         -1.47144       -3.20842        2.96224
H         -0.28964        0.02297        2.05956
Pd         1.45724       -0.51235        0.10530
O          3.50554       -1.16279       -0.44653
C          3.56289       -0.10320       -1.11124
O          2.56348        0.69676       -1.09525
C          4.75084        0.24416       -1.95112
H          4.53527       -0.02993       -2.99532
H          4.93635        1.32585       -1.92056
H          5.63141       -0.31527       -1.61307
H         -1.70780        4.80495        0.60277
C          0.37769        4.84197        0.82012
H          0.26067        5.93168        0.88961
H          1.15626        4.64343        0.06416
H          0.75968        4.47663        1.79411
