49
TwoHchromene_H8_Int2_Sub11.log	Energy: -779231.2848934
C          0.54553       -0.28599       -0.04124
C         -0.15849       -1.32910       -0.65407
C         -0.19806        0.64775        0.69411
C         -1.54719       -1.41985       -0.56805
H          0.39873       -2.10247       -1.18890
C         -1.60774        0.59017        0.76282
O          0.46946        1.68709        1.26075
C         -2.29416       -0.46929        0.13164
H         -2.05066       -2.25585       -1.05614
C         -2.27276        1.70025        1.44293
C         -0.10939        2.27570        2.40842
C         -3.80432       -0.53527        0.17312
C         -1.56829        2.53906        2.21549
H         -3.34216        1.85735        1.29180
H          0.05905        1.61366        3.28460
H          0.45534        3.20125        2.58924
H         -2.03477        3.38686        2.72333
O          2.68213        1.70840       -0.58689
C          1.94877        2.39151       -1.29694
O          0.86435        1.94630       -1.86764
C          2.24067        3.82953       -1.55468
H          3.27832        4.05708       -1.28940
H          2.03301        4.08145       -2.60278
H          1.56317        4.42802       -0.92597
H          0.67574        1.03698       -1.52364
Pd         2.51086       -0.28990       -0.11109
O          4.57775       -1.11213       -0.00867
C          4.02662       -2.20546        0.25113
O          2.74850       -2.26634        0.29429
C          4.81497       -3.44353        0.54259
H          4.83614       -3.60151        1.63180
H          4.32969       -4.31792        0.08896
H          5.84339       -3.33354        0.17837
H         -4.13398       -0.06913        1.11831
C         -4.37729       -1.95453        0.17858
H         -3.93435       -2.53402        1.00444
H         -4.09623       -2.47327       -0.75437
C         -5.89845       -1.93502        0.28217
H         -6.29160       -2.96447        0.27788
H         -6.19219       -1.49583        1.25297
C         -6.52234       -1.12302       -0.84784
H         -7.61855       -1.08907       -0.73936
H         -6.32112       -1.62990       -1.80916
C         -5.94875        0.28873       -0.89949
H         -6.25922        0.83927        0.00750
H         -6.36640        0.84409       -1.75503
C         -4.42616        0.27504       -0.97529
H         -4.09936       -0.17301       -1.93088
H         -4.02802        1.30274       -0.97017
