33
TwoHchromene_H8_Int2_Sub10.log	Energy: -920403.3500667
C         -0.21734       -0.50271       -0.21452
C         -0.51346       -1.65578       -0.95537
C         -1.27808        0.13673        0.44323
C         -1.81458       -2.14003       -1.07557
H          0.30373       -2.20439       -1.43020
C         -2.61280       -0.31133        0.32355
O         -1.01741        1.27708        1.12929
C         -2.85066       -1.46127       -0.44195
H         -2.02997       -3.04119       -1.65090
C         -3.65616        0.49173        0.94753
C         -1.88207        1.60925        2.20029
Cl        -4.47134       -2.05942       -0.61411
C         -3.32195        1.44060        1.83203
H         -4.69352        0.30390        0.66478
H         -1.62701        0.98475        3.08249
H         -1.64546        2.65009        2.46261
H         -4.07422        2.06846        2.31569
O          1.34545        2.03525       -0.30992
C          0.55960        2.56666       -1.09049
O         -0.25781        1.90566       -1.86216
C          0.46392        4.04813       -1.20695
H          1.34045        4.51969       -0.75078
H          0.35425        4.34388       -2.25843
H         -0.44398        4.36932       -0.67304
H         -0.22142        0.94910       -1.61412
Pd         1.66845        0.02380       -0.00808
O          3.84608       -0.22417        0.32795
C          3.59778       -1.44718        0.42898
O          2.39043       -1.84983        0.28401
C          4.65983       -2.45211        0.74232
H          4.60055       -2.70747        1.81147
H          4.49102       -3.37380        0.16988
H          5.65154       -2.03506        0.53031
