45
TwoHchromene_H8_Int2_Sub20.log	Energy: -730685.7638751
C         -0.13615        0.79095        1.06435
C         -0.37665        1.26108        2.36378
C          1.19317        0.59746        0.66561
C          0.67715        1.54160        3.23637
H         -1.40809        1.38891        2.70220
C          2.26587        0.85246        1.53999
O          1.42273        0.21851       -0.61406
C          1.99023        1.33096        2.82428
H          0.46891        1.90974        4.24331
C          3.60721        0.59181        1.03764
C          2.60186       -0.51329       -0.93705
H          2.82303        1.53294        3.50325
C          3.77738       -0.04912       -0.12719
H          4.46372        0.92464        1.63037
C          2.32076       -2.03939       -0.87962
H          2.78898       -0.26987       -1.99752
H          4.77642       -0.25253       -0.51845
O         -1.14889        1.40099       -1.66732
C         -0.58571        2.49306       -1.69495
O         -0.11970        3.10210       -0.64258
C         -0.37327        3.21923       -2.97921
H         -1.00426        2.78958       -3.76410
H         -0.57532        4.29054       -2.84911
H          0.68559        3.11224       -3.26146
H         -0.19299        2.49507        0.13871
Pd        -1.59945        0.16112       -0.08503
O         -3.32614       -1.09447       -0.71427
C         -3.22562       -1.62868        0.41323
O         -2.32655       -1.21121        1.22426
C         -4.10949       -2.75673        0.84308
H         -4.92730       -2.89461        0.12621
H         -3.51087       -3.67827        0.90028
H         -4.50518       -2.55959        1.84899
C          1.91385       -2.47139        0.52993
H          1.80950       -3.56707        0.56936
H          2.66621       -2.17801        1.27802
H          0.94638       -2.03729        0.82290
C          1.18336       -2.34905       -1.85450
H          1.45665       -2.07904       -2.88755
H          0.94578       -3.42400       -1.83845
H          0.27240       -1.79296       -1.58703
C          3.58569       -2.78515       -1.30816
H          3.37671       -3.86220       -1.39676
H          3.94968       -2.43637       -2.28892
H          4.39954       -2.66512       -0.57681
