33
TwoHchromene_H8_deriv1_Int2_Sub10.log	Energy: -1208731.8097303
C         -0.19854        0.60402        0.22015
C         -0.25416        1.98199        0.46544
C         -1.39934       -0.05628       -0.06631
C         -1.47503        2.66165        0.44624
H          0.66532        2.54219        0.64592
C         -2.63195        0.61984       -0.09446
O         -1.37023       -1.40979       -0.23937
C         -2.66102        1.99360        0.16963
Cl        -1.50863        4.36615        0.76337
C         -3.82210       -0.16034       -0.37935
C         -2.35129       -2.00417       -1.00471
H         -3.60786        2.53593        0.15421
C         -3.70498       -1.42912       -0.80110
H         -4.80197        0.30742       -0.25576
Cl        -1.92206       -1.86922       -2.79281
H         -2.29684       -3.08006       -0.80412
H         -4.56675       -2.04540       -1.06296
O          1.06610       -1.91398        1.22332
C          0.35604       -1.96477        2.22419
O         -0.27249       -0.93463        2.72109
C          0.13645       -3.24121        2.95866
H          0.86355       -3.99222        2.63329
H          0.19802       -3.07239        4.04190
H         -0.88230       -3.59375        2.73499
H         -0.16213       -0.17053        2.10592
Pd         1.56771       -0.25868        0.10511
O          3.67757       -0.52571       -0.47220
C          3.56968        0.58298       -1.04612
O          2.45320        1.20724       -0.97515
C          4.68692        1.18530       -1.83392
H          4.51659        0.97696       -2.90139
H          4.69971        2.27534       -1.70350
H          5.64417        0.74202       -1.53446
