49
TwoHchromene_H8_deriv1_Int2_Sub3.log	Energy: -1067562.0919570
C         -0.29110        0.61222       -0.16488
C          0.65758        1.58969       -0.53895
C         -1.64936        0.93468       -0.23662
C          0.20309        2.85622       -0.94230
C          2.13246        1.25244       -0.49722
C         -2.10800        2.19809       -0.64746
O         -2.54767        0.00271        0.20122
C         -1.15164        3.15648       -0.99588
H          0.92531        3.62064       -1.23128
C         -3.53925        2.42681       -0.65916
C         -3.83229        0.03205       -0.29667
H         -1.48340        4.14750       -1.31610
C         -4.38332        1.39900       -0.47336
H         -3.91079        3.44040       -0.83065
Cl        -3.89071       -0.83819       -1.92671
H         -4.43772       -0.60569        0.35692
H         -5.46828        1.51150       -0.50749
O         -0.55594       -1.18443        2.19330
C         -0.74854       -0.25633        2.97472
O         -0.54156        0.99803        2.68587
C         -1.25707       -0.49802        4.35497
H         -1.25094       -1.57002        4.57660
H         -0.64626        0.05668        5.08041
H         -2.28404       -0.10843        4.42429
H         -0.29780        1.07299        1.72806
Pd         0.20727       -1.24375        0.27642
O          1.01768       -3.28960       -0.00385
C          1.33126       -2.91120       -1.15513
O          1.07543       -1.70509       -1.50364
C          1.97489       -3.82379       -2.14923
H          1.23067       -4.09860       -2.91203
H          2.79546       -3.30293       -2.66113
H          2.33822       -4.73174       -1.65371
H          2.22179        0.24056       -0.93054
C          2.65795        1.16864        0.94402
H          2.03374        0.46968        1.52437
H          2.55700        2.16081        1.42148
C          4.11079        0.71023        0.98439
H          4.47344        0.68897        2.02500
H          4.16109       -0.33018        0.61586
C          5.00608        1.59409        0.12394
H          6.03935        1.21061        0.12406
H          5.05021        2.60573        0.56730
C          4.47496        1.69801       -1.30135
H          4.53459        0.70735       -1.78676
H          5.10675        2.37507       -1.89876
C          3.02701        2.17602       -1.32216
H          2.98834        3.20180       -0.91246
H          2.65467        2.23388       -2.35776
