42
TwoHchromene_H8_deriv1_Int2_Sub5.log	Energy: -994361.6585403
C         -0.17318        0.72132       -0.25927
C          0.21605        1.96510       -0.80273
C         -1.52816        0.37638       -0.27956
C         -0.77328        2.81892       -1.31816
C          1.68179        2.36223       -0.80741
C         -2.51963        1.22429       -0.80167
O         -1.89327       -0.79570        0.32043
C         -2.11417        2.45834       -1.31879
H         -0.48604        3.78368       -1.73838
C         -3.89519        0.77061       -0.74666
C         -3.04969       -1.42214       -0.09111
H         -2.86653        3.13707       -1.72868
C         -4.16948       -0.49426       -0.38862
H         -4.69297        1.47001       -1.00966
Cl        -2.70967       -2.43252       -1.60149
H         -3.28969       -2.17193        0.67090
H         -5.18427       -0.89499       -0.36485
O          0.44902       -0.67261        2.30035
C         -0.14759        0.15633        2.98296
O         -0.55648        1.31160        2.53827
C         -0.46731       -0.10443        4.41540
H          0.04119       -1.01207        4.75593
H         -0.17674        0.76125        5.02634
H         -1.55643       -0.22657        4.51596
H         -0.38616        1.36033        1.56287
Pd         1.12001       -0.63711        0.34893
O          2.75571       -2.12988        0.22953
C          2.83870       -1.80890       -0.97768
O          2.06444       -0.89472       -1.43182
C          3.79200       -2.47470       -1.91741
H          3.23093       -3.18265       -2.54635
H          4.24877       -1.72986       -2.58276
H          4.55920       -3.02184       -1.35691
H          2.23733        1.45203       -1.08827
C          2.02737        3.44510       -1.82150
H          3.11821        3.58310       -1.86496
H          1.68069        3.18065       -2.83170
H          1.58964        4.42030       -1.55300
C          2.13841        2.76909        0.59606
H          2.00185        1.94721        1.31530
H          3.20772        3.03201        0.59693
H          1.57221        3.64257        0.95864
