49
TwoHchromene_H8_deriv1_Int2_Sub11.log	Energy: -1067561.5609271
C          0.15478       -0.15567        0.09226
C         -1.23985       -0.05967        0.15113
C          0.70870       -1.42317       -0.12194
C         -2.08076       -1.17806        0.02766
H         -1.68341        0.93271        0.26992
C         -0.09804       -2.56546       -0.25242
O          2.06875       -1.55174       -0.11507
C         -1.48913       -2.42279       -0.17118
C         -3.58111       -1.02731        0.08671
C          0.56880       -3.83934       -0.44314
C          2.63998       -2.60190       -0.79937
H         -2.11644       -3.31317       -0.27342
C          1.88855       -3.87682       -0.68790
H         -0.02311       -4.75696       -0.39362
Cl         2.80015       -2.17185       -2.59064
H          3.67928       -2.67193       -0.45931
H          2.42918       -4.80660       -0.87294
O          2.61850        0.80613        1.46713
C          2.43746        0.09083        2.44893
O          1.28205       -0.42179        2.77245
C          3.55637       -0.27215        3.36262
H          4.42012        0.37382        3.17480
H          3.23077       -0.20534        4.40911
H          3.83144       -1.32001        3.16639
H          0.63751       -0.23332        2.04664
Pd         1.21450        1.50037        0.12770
O          1.78416        3.58259       -0.37371
C          0.76290        3.59024       -1.09823
O          0.01959        2.54787       -1.13457
C          0.39892        4.76553       -1.94783
H          0.74036        4.57473       -2.97688
H         -0.69124        4.89281       -1.97514
H          0.89108        5.67127       -1.57370
H         -4.01514       -2.04012       -0.00486
C         -4.12127       -0.19428       -1.08307
H         -3.80032       -0.64550       -2.03553
H         -3.66235        0.80998       -1.04998
C         -5.63906       -0.06232       -1.03076
H         -5.99301        0.56633       -1.86380
H         -6.09530       -1.05811       -1.17940
C         -6.10632        0.50740        0.30414
H         -7.20664        0.56056        0.33672
H         -5.74192        1.54632        0.40151
C         -5.57835       -0.31793        1.47250
H         -6.02997       -1.32621        1.43799
H         -5.88978        0.12681        2.43161
C         -4.06019       -0.44840        1.42353
H         -3.60408        0.54749        1.56741
H         -3.69541       -1.07818        2.25127
