33
TwoHchromene_H8_deriv1_Int2_Sub18.log	Energy: -1208731.0107539
C         -0.08498       -0.61664       -0.45780
C         -0.32658       -1.86408       -1.04820
C         -1.19630        0.08640        0.02222
C         -1.61615       -2.37998       -1.18176
H          0.52134       -2.46309       -1.38920
C         -2.51413       -0.39781       -0.09134
O         -0.98905        1.32835        0.54514
C         -2.69659       -1.64725       -0.70603
H         -1.78601       -3.35434       -1.64161
C         -3.58773        0.43775        0.40971
C         -1.88591        1.82845        1.46685
Cl        -4.29466       -2.29790       -0.87462
C         -3.30167        1.52295        1.14579
H         -4.61712        0.15469        0.18360
Cl        -1.50123        1.16145        3.14048
H         -1.67610        2.90007        1.55746
H         -4.07524        2.16402        1.57174
O          1.51027        1.89244       -0.79323
C          0.82708        2.28876       -1.73409
O          0.07305        1.51078       -2.46093
C          0.79114        3.72711       -2.11789
H          1.60725        4.26783       -1.62784
H          0.84589        3.83077       -3.20968
H         -0.17457        4.14443       -1.79321
H          0.07143        0.60834       -2.05760
Pd         1.77433       -0.04622       -0.14897
O          3.89101       -0.21259        0.44784
C          3.62987       -1.40810        0.71667
O          2.44496       -1.84454        0.50086
C          4.64438       -2.33128        1.30922
H          4.48041       -2.38238        2.39662
H          4.52036       -3.34407        0.90400
H          5.65653       -1.95362        1.12095
