37
TwoHchromene_H8_deriv1_Int2_Sub16.log	Energy: -992226.7822267
C          0.12241        0.62572       -0.21047
C         -0.11720        1.98857       -0.44709
C          1.43393        0.21981        0.03843
C          0.92949        2.92025       -0.45150
H         -1.14851        2.31393       -0.58796
C          2.49882        1.14123        0.03592
O          1.69596       -1.11498        0.20040
C          2.23644        2.48784       -0.21374
O          0.76581        4.24214       -0.67000
C          3.83154        0.62483        0.29092
C          2.79267       -1.48517        0.94283
H          3.04408        3.22225       -0.21546
C          3.99115       -0.63895        0.71416
H          4.68948        1.28641        0.14734
Cl         2.38448       -1.43939        2.74654
H          2.96346       -2.54967        0.74627
H          4.96800       -1.05997        0.95845
O         -0.62262       -2.10730       -1.16394
C          0.08044       -2.03214       -2.16823
O          0.49300       -0.90724       -2.68432
C          0.54426       -3.25260       -2.88455
H         -0.03515       -4.12287       -2.55961
H          0.47153       -3.10921       -3.97062
H          1.60651       -3.40705       -2.63941
H          0.25269       -0.17114       -2.07012
Pd        -1.43910       -0.56348       -0.07289
O         -3.47145       -1.21988        0.51474
C         -3.57784       -0.09844        1.06105
O         -2.60389        0.72922        0.97366
C         -4.79187        0.29486        1.84000
H         -4.58876        0.13738        2.91048
H         -5.01027        1.36082        1.69384
H         -5.64771       -0.32533        1.54764
C         -0.53019        4.73430       -0.86493
H         -1.00458        4.30068       -1.76341
H         -1.17991        4.53805        0.00598
H         -0.43703        5.81905       -1.00290
