38
Azulene_H8_deriv1_Int1_Sub31.log	Energy: -956470.4942651
C         -0.67410       -1.37336       -1.07399
C          0.48266       -0.98108       -1.74727
C         -0.90466       -1.58243        0.31346
C          1.75350       -0.70217       -1.22721
H          0.38523       -0.85650       -2.82637
C          0.09263       -1.52942        1.34672
H         -1.81197       -2.14191        0.55254
C          2.23373       -0.77049        0.08056
Cl         2.86401       -0.20691       -2.49178
C          1.40630       -1.17007        1.25683
H         -0.25881       -1.79326        2.34926
C          3.53674       -0.49982        0.59591
C          2.26185       -1.12246        2.39749
N          4.64153       -0.09849       -0.05999
C          3.51824       -0.72781        2.01360
H          1.94030       -1.36203        3.41075
H          4.37609       -0.59919        2.67135
O         -3.46360       -0.24596        0.61334
C         -4.12113       -0.99518       -0.22048
O         -3.66249       -1.52694       -1.21876
C         -5.57585       -1.14785        0.16970
H         -5.66562       -1.40104        1.23519
H         -6.08918       -0.18615        0.02010
H         -6.04957       -1.91696       -0.45189
H         -1.55491       -1.58561       -1.68954
Pd        -1.63320        0.40343        0.24959
O         -1.86277        2.55269        0.26713
C         -0.61769        2.64904        0.11225
O          0.06826        1.57867        0.04349
C          0.05144        3.97724       -0.02630
H          1.08443        3.92427        0.34049
H          0.07726        4.24784       -1.09327
H         -0.51787        4.74658        0.51013
H          4.56154        0.04931       -1.05616
C          5.90175        0.14463        0.58228
H          6.63319        0.45686       -0.17368
H          6.29531       -0.75966        1.07835
H          5.83526        0.94613        1.33879
