36
Azulene_H12_Int1_Sub14.log	Energy: -633444.3818209
C          1.22898       -1.71093       -0.22085
C          2.41557       -1.81664       -0.94776
C          0.94292       -0.87024        0.85216
C          3.61431       -1.10381       -0.83542
H          2.39302       -2.56429       -1.74617
C          1.81782        0.09170        1.50368
C         -0.33296       -0.81096        1.53451
C          3.89811       -0.09072        0.10206
C          4.71678       -1.43033       -1.80614
C          3.11951        0.43127        1.12310
C          1.09875        0.66332        2.58869
C         -0.16691        0.11004        2.62797
H         -1.02674       -1.65224        1.53855
H          4.89762        0.34782        0.01524
H          3.59271        1.21214        1.72731
H          1.48718        1.44005        3.24668
H         -0.93867        0.33284        3.36555
O         -2.77704       -0.68996        0.00877
C         -2.71812       -1.90296       -0.44270
O         -1.69555       -2.51930       -0.70931
C         -4.08767       -2.52099       -0.62584
H         -4.69121       -2.39187        0.28352
H         -4.61244       -1.99855       -1.43959
H         -3.98850       -3.58442       -0.87400
H          0.38398       -2.33498       -0.53626
Pd        -1.18732        0.48082        0.08882
O         -1.62758        2.09502       -1.29910
C         -0.54208        2.62032       -0.95105
O          0.17360        2.01401       -0.08485
C         -0.09444        3.93706       -1.49666
H          1.00147        3.97790       -1.54246
H         -0.53563        4.10702       -2.48657
H         -0.43906        4.73478       -0.82060
H          4.96505       -0.55047       -2.42125
H          4.44022       -2.25025       -2.48116
H          5.63666       -1.71816       -1.27308
