36
Azulene_H16_Int1_Sub6_f.log	Energy: -633444.0011862
C          0.15598       -1.30876        1.23046
C         -1.02633       -0.80739        1.81921
C         -0.05694       -1.55225       -0.16100
C         -2.02075       -0.76347        0.82745
C         -1.14582       -0.30512        3.21720
C         -1.44986       -1.26658       -0.42972
H          0.55209       -2.20760       -0.78562
C         -3.32735       -0.26537        1.00964
C         -2.06149       -1.45701       -1.64716
C         -4.36876       -0.21164        0.10734
H         -3.54289        0.12225        2.00999
C         -3.39855       -1.18676       -2.01101
H         -1.42101       -1.86121       -2.43773
C         -4.40172       -0.63526       -1.24063
H         -5.30318        0.21349        0.48456
H         -3.66540       -1.43275       -3.04259
H         -5.36347       -0.49976       -1.74498
O          2.53337       -0.68418       -0.90231
C          3.38074       -1.10269       -0.00485
O          3.20728       -1.07021        1.20134
C          4.65371       -1.63896       -0.62296
H          4.42501       -2.32176       -1.45295
H          5.22929       -0.79924       -1.04076
H          5.25265       -2.14705        0.14219
H          1.09424       -1.51667        1.75019
Pd         0.94041        0.32063       -0.30928
O          1.46672        2.40098       -0.51803
C          0.29244        2.69040       -0.17335
O         -0.51076        1.73433        0.08731
C         -0.17470        4.10635       -0.09912
H          0.65451        4.76233        0.19469
H         -0.51863        4.41645       -1.09799
H         -1.01433        4.19632        0.60136
H         -1.16627        0.79781        3.23635
H         -0.28708       -0.62798        3.82130
H         -2.06086       -0.66383        3.71372
