37
Azulene_H8_deriv1_Int1_Sub24.log	Energy: -968927.5649736
C          0.01238        0.34167       -1.79461
C         -1.22273       -0.22547       -2.06074
C          0.45417        1.19595       -0.74208
C         -2.41042       -0.06270       -1.33426
H         -1.28101       -0.88130       -2.93029
C         -0.34116        1.81356        0.28208
H          1.41027        1.67228       -0.96112
C         -2.65144        0.72090       -0.20494
Cl        -3.74994       -0.96504       -1.96656
C         -1.69929        1.57911        0.52882
O          0.22363        2.68397        1.10809
C         -3.89190        0.85238        0.45324
C         -2.41585        2.17861        1.58035
H         -4.80447        0.34087        0.15444
C         -3.74365        1.73329        1.52904
H         -1.98557        2.86930        2.30253
H         -4.53560        2.02521        2.21908
O          2.97240        0.03580        0.19476
C          3.58432        0.24932       -0.93559
O          3.04899        0.29526       -2.03084
C          5.07390        0.43917       -0.75875
H          5.28111        1.15232        0.05130
H          5.52445       -0.52110       -0.46635
H          5.52050        0.78231       -1.69940
H          0.81899        0.11943       -2.50022
Pd         1.09488       -0.58159        0.26640
O          1.24417       -2.40203        1.37408
C         -0.01174       -2.49558        1.31888
O         -0.64694       -1.57019        0.71515
C         -0.74318       -3.65550        1.90160
H         -1.74707       -3.34811        2.22112
H         -0.85044       -4.42875        1.12518
H         -0.17528       -4.08083        2.73831
C          1.60575        2.98290        1.05017
H          2.21658        2.06896        1.11571
H          1.85524        3.52904        0.12632
H          1.80376        3.63101        1.91164
