33
Azulene_H16_deriv1_Int1_Sub2.log	Energy: -1185432.0742673
C          0.65606       -1.34709        0.99078
C         -0.59634       -0.93647        1.49823
C          0.52773       -1.53622       -0.41697
C         -1.53947       -0.87073        0.46727
Cl        -0.88446       -0.47717        3.12232
C         -0.85848       -1.29124       -0.76398
H          1.20231       -2.13550       -1.03035
C         -2.86546       -0.42450        0.61476
C         -1.38912       -1.44357       -2.01999
C         -3.84954       -0.35891       -0.34694
H         -3.13947       -0.10090        1.62251
C         -2.71776       -1.19991       -2.44056
H         -0.69397       -1.78601       -2.79267
C         -3.78621       -0.72270       -1.71797
Cl        -5.39671        0.24217        0.17264
H         -2.92208       -1.40507       -3.49480
H         -4.72388       -0.59538       -2.26441
O          3.14277       -0.53221       -0.89308
C          3.92725       -1.00393        0.03618
O          3.64602       -1.09493        1.21849
C          5.27261       -1.42781       -0.50942
H          5.15238       -2.01685       -1.42900
H          5.84965       -0.52805       -0.77109
H          5.81687       -2.00113        0.25038
H          1.55957       -1.55066        1.57020
Pd         1.46608        0.37318       -0.38087
O          1.91154        2.47339       -0.46693
C          0.70406        2.69958       -0.19353
O         -0.07334        1.69686       -0.05413
C          0.18709        4.08421        0.00173
H          0.78746        4.79813       -0.57560
H         -0.87200        4.13962       -0.28045
H          0.27280        4.34159        1.06885
