42
Azulene_H12_Int1_Sub13.log	Energy: -682743.3620493
C         -1.11846        1.30221        0.36952
C         -2.40849        1.21705       -0.14542
C         -0.47287        0.42104        1.23873
C         -3.39775        0.23773        0.02510
H         -2.67915        2.04351       -0.80920
C         -1.00381       -0.78443        1.85685
C          0.88765        0.57093        1.70539
C         -3.29463       -0.91278        0.82300
C         -4.70250        0.43517       -0.73174
C         -2.25284       -1.36037        1.62794
C          0.00109       -1.30283        2.72353
C          1.11181       -0.48808        2.65759
H          1.38683        1.54005        1.73407
H         -4.18037       -1.55568        0.81863
H         -2.44293       -2.29286        2.16938
H         -0.09826       -2.21884        3.30509
H          2.03396       -0.61739        3.22515
O          2.94969        1.19866       -0.21533
C          2.57441        2.41943       -0.43196
O          1.42289        2.83147       -0.40579
C          3.73822        3.33726       -0.73973
H          4.52678        3.22289        0.01724
H          4.17548        3.05217       -1.70825
H          3.39385        4.37741       -0.78214
H         -0.49175        2.13894        0.03801
Pd         1.67401       -0.30180       -0.05897
O          2.15585       -1.59273       -1.74026
C          1.29307       -2.39406       -1.30551
O          0.65219       -2.07842       -0.24749
C          1.02942       -3.70464       -1.97246
H         -0.02118       -3.99431       -1.84154
H          1.29189       -3.64837       -3.03614
H          1.65853       -4.47435       -1.49924
H         -5.35435       -0.41320       -0.46610
C         -5.42077        1.71463       -0.30316
H         -6.39693        1.79120       -0.80606
H         -5.59332        1.73361        0.78322
H         -4.84201        2.61336       -0.56763
C         -4.48391        0.38817       -2.24440
H         -3.98777       -0.54535       -2.54874
H         -5.44746        0.45274       -2.77275
H         -3.85925        1.22706       -2.58891
