38
Azulene_H8_deriv1_Int1_Sub23.log	Energy: -956478.1012989
C          0.01498        0.31967       -1.78774
C         -1.22552       -0.23314       -2.06166
C          0.45921        1.17372       -0.73914
C         -2.40885       -0.04857       -1.33871
H         -1.28835       -0.89266       -2.92784
C         -0.32876        1.83905        0.27476
H          1.41586        1.64457       -0.96774
C         -2.64544        0.73828       -0.20751
Cl        -3.75869       -0.93722       -1.97470
C         -1.70185        1.59109        0.53261
N          0.31190        2.74212        1.03378
C         -3.89769        0.85567        0.44290
C         -2.43264        2.16827        1.58454
H         -4.80302        0.33933        0.13185
C         -3.76349        1.71870        1.52607
H         -2.05080        2.84360        2.35174
H         -4.55508        1.99657        2.22181
O          2.96697        0.02439        0.19632
C          3.58506        0.21177       -0.93490
O          3.05789        0.22945       -2.03482
C          5.07307        0.41376       -0.75295
H          5.26891        1.17451        0.01594
H          5.52297       -0.52557       -0.39855
H          5.52974        0.70453       -1.70632
H          0.82425        0.08478       -2.48644
Pd         1.08789       -0.59518        0.26815
O          1.22523       -2.41020        1.39949
C         -0.03007       -2.49907        1.33255
O         -0.65849       -1.57761        0.71659
C         -0.77156       -3.65289        1.91676
H         -1.77664       -3.33944        2.22659
H         -0.87663       -4.42997        1.14389
H         -0.21205       -4.07625        2.76011
H         -0.24389        3.21432        1.73191
C          1.72180        3.04526        0.99479
H          1.96743        3.66450        1.86638
H          1.99893        3.60962        0.08826
H          2.32752        2.12592        1.03203
