38
Azulene_H16_deriv1_Int1_Sub23.log	Energy: -956473.9465775
C         -0.78813       -1.67992       -0.62123
C          0.48011       -1.45861       -1.18711
C         -0.70906       -1.42555        0.77755
C          1.39010       -1.07954       -0.18136
H          0.66470       -1.49741       -2.25358
C          0.65575       -1.06002        1.08032
H         -1.41936       -1.76790        1.53139
C          2.76429       -0.71221       -0.39668
C          1.03904       -0.70752        2.36595
C          3.56327       -0.08655        0.60965
N          3.36063       -0.92143       -1.58767
C          2.25304       -0.17231        2.77690
H          0.26496       -0.82227        3.13101
C          3.34147        0.12730        1.96640
Cl         5.15702        0.45707        0.08874
H          2.36240        0.07305        3.83531
H          4.19038        0.59131        2.47479
O         -3.33955       -0.35148        0.75148
C         -4.10140       -0.99950       -0.08383
O         -3.78886       -1.33729       -1.21257
C         -5.46760       -1.29427        0.49764
H         -5.37530       -1.72043        1.50638
H         -6.02789       -0.35198        0.59240
H         -6.01239       -1.97968       -0.16248
H         -1.67832       -2.02804       -1.14866
Pd        -1.62886        0.39558        0.10694
O         -2.05083        2.44848       -0.37671
C         -0.82581        2.59944       -0.62275
O         -0.05666        1.59284       -0.48428
C         -0.26910        3.92265       -1.03310
H         -1.00830        4.47456       -1.62758
H         -0.05221        4.50989       -0.12743
H          0.66455        3.78813       -1.59335
H          4.29363       -0.52912       -1.64491
C          3.00213       -1.79930       -2.67230
H          2.34661       -1.31821       -3.41604
H          2.51076       -2.71001       -2.30603
H          3.92811       -2.09347       -3.18517
