33
Azulene_H12_Int1_Sub18.log	Energy: -897107.0665270
C          0.29137       -2.00014       -0.94134
C          1.14622       -2.35056       -1.97702
C          0.62540       -1.37045        0.26453
C          2.52969       -2.16403       -2.08088
H          0.66247       -2.80747       -2.84444
C          1.95459       -1.10495        0.80947
C         -0.31746       -0.99890        1.30063
C          3.42543       -1.64431       -1.15053
H          2.97332       -2.48553       -3.02817
C          3.17164       -1.19343        0.14667
C          1.79015       -0.66019        2.15829
C          0.45457       -0.62274        2.46651
Cl        -1.83164       -1.83101        1.50581
H          4.47184       -1.61087       -1.46662
H          4.04488       -0.88111        0.72784
H          2.61023       -0.34718        2.80342
H          0.00615       -0.34747        3.42066
O         -2.35347        0.63374       -0.02002
C         -2.78059       -0.01061       -1.06324
O         -2.07039       -0.56188       -1.89015
C         -4.28911       -0.05808       -1.13785
H         -4.64680       -0.81614       -0.42379
H         -4.72803        0.90537       -0.84682
H         -4.60362       -0.34074       -2.14980
H         -0.77487       -2.17785       -1.09825
Pd        -0.41671        0.85498        0.22550
O         -0.07491        2.79594       -0.63052
C          1.12539        2.71464       -0.26693
O          1.49587        1.65803        0.34368
C          2.09334        3.82596       -0.50403
H          3.10646        3.42591       -0.63881
H          1.78551        4.41727       -1.37524
H          2.09832        4.48389        0.37873
