42
Azulene_H18_Int1_Sub13.log	Energy: -682743.6004903
C          0.04221        0.69339        1.32016
C         -1.32117        0.59206        0.82793
C          0.17122       -0.23603        2.40027
C         -1.96280       -0.45838        1.62421
C         -1.83110        1.32083       -0.24233
C         -1.02512       -0.93616        2.56068
H          1.06151       -0.32939        3.02301
C         -3.27198       -0.96457        1.51134
C         -3.16292        1.23473       -0.72212
C         -0.90781        2.24763       -1.01023
H         -1.21114       -1.74309        3.26838
C         -4.27565       -0.56274        0.65905
H         -3.51810       -1.77172        2.20863
C         -4.21728        0.43419       -0.33460
H         -3.38792        1.90937       -1.55277
H         -5.23304       -1.08206        0.75665
H         -5.14512        0.58362       -0.89571
O          2.79568        0.19077        0.71883
C          3.06678        1.38180        0.27905
O          2.29739        2.10067       -0.34263
C          4.47583        1.81916        0.61311
H          4.61160        2.87514        0.35117
H          4.68526        1.65653        1.67969
H          5.18839        1.20270        0.04507
H          0.65502        1.58720        1.19970
Pd         1.12464       -0.69752        0.14300
O          1.71137       -2.20822       -1.29272
C          0.50284       -2.54745       -1.35563
O         -0.34220       -1.90836       -0.64380
C          0.04775       -3.68366       -2.21116
H         -0.02507       -4.58808       -1.58765
H         -0.94890       -3.47334       -2.62059
H          0.77122       -3.86885       -3.01445
H          0.08654        2.22030       -0.54732
C         -0.70687        1.72010       -2.43280
H          0.06737        2.31495       -2.93943
H         -0.36719        0.67373       -2.41176
H         -1.62821        1.77191       -3.03559
C         -1.38867        3.69718       -0.99414
H         -1.51638        4.06553        0.03504
H         -0.64326        4.33698       -1.48977
H         -2.34522        3.83325       -1.52450
