42
Azulene_H18_Int1_Sub29.log	Energy: -682742.2234396
C         -0.67931       -1.04423        1.28743
C          0.34204       -1.40435        0.32304
C         -0.00774       -0.35838        2.35436
C          1.60026       -0.82683        0.78712
C          0.06218       -2.17561       -0.80319
C          1.32834       -0.20337        2.04140
H         -0.49199       -0.00874        3.26668
C          2.84337       -0.81354        0.11391
C          0.95000       -2.57342       -1.79973
H         -0.99320       -2.45663       -0.90304
H          2.04623        0.35111        2.64119
C          3.10756       -1.46067       -1.09604
C          3.95958        0.01142        0.73374
C          2.29497       -2.24156       -1.92228
H          0.53126       -3.19750       -2.59402
H          4.12965       -1.34848       -1.46369
H          2.79699       -2.64155       -2.80900
O         -3.22446        0.02841        0.44316
C         -3.67413       -1.07912       -0.05747
O         -3.00134       -1.95093       -0.58983
C         -5.17670       -1.20612        0.07471
H         -5.49585       -2.20907       -0.23268
H         -5.48922       -1.00184        1.10837
H         -5.65953       -0.45209       -0.56468
H         -1.58416       -1.64079        1.40899
Pd        -1.36119        0.63030        0.18920
O         -1.52791        2.48142       -0.95320
C         -0.28317        2.59358       -0.85539
O          0.35970        1.68487       -0.22746
C          0.45406        3.76339       -1.42161
H          0.66518        4.47644       -0.60986
H          1.41522        3.43663       -1.84059
H         -0.15404        4.26495       -2.18399
H          3.82041       -0.03951        1.82406
C          5.37241       -0.48852        0.45316
H          6.08912        0.06954        1.07400
H          5.48472       -1.55810        0.68711
H          5.67373       -0.33137       -0.59430
C          3.79246        1.47577        0.30852
H          2.77093        1.83508        0.49644
H          4.50892        2.11632        0.84570
H          3.98555        1.58120       -0.77122
