36
Azulene_H8_deriv1_Int1_Sub22.log	Energy: -921758.9574360
C         -0.02556       -0.68431        1.85827
C         -1.26561       -0.13288        2.10508
C          0.46460       -1.40279        0.73039
C         -2.40084       -0.17024        1.27485
H         -1.38827        0.40068        3.04875
C         -0.20453       -1.77780       -0.47302
H          1.41933       -1.89992        0.90925
C         -2.55702       -0.75128        0.01970
Cl        -3.78256        0.63080        1.95216
C         -1.53767       -1.47502       -0.78877
C          0.59645       -2.62678       -1.42030
C         -3.74962       -0.75592       -0.73274
C         -2.18700       -1.86536       -1.97398
H         -4.68419       -0.30039       -0.41268
C         -3.52052       -1.43079       -1.93305
H         -1.73005       -2.42214       -2.78971
H         -4.26147       -1.59478       -2.71595
O          2.90978       -0.41987       -0.37264
C          3.58446       -0.53247        0.73858
O          3.12454       -0.33939        1.85161
C          5.02480       -0.92662        0.50956
H          5.09215       -1.75648       -0.20744
H          5.56254       -0.07283        0.07058
H          5.49148       -1.19985        1.46333
H          0.73233       -0.55021        2.63535
Pd         1.11890        0.40103       -0.24420
O          1.37230        2.31896       -1.13971
C          0.14341        2.53300       -0.95591
O         -0.54066        1.60881       -0.40742
C         -0.49457        3.82713       -1.32793
H         -1.54974        3.66896       -1.58471
H         -0.44818        4.50344       -0.46035
H          0.04858        4.29293       -2.15953
H          0.44169       -2.32582       -2.46452
H          0.28744       -3.68086       -1.32639
H          1.66815       -2.54890       -1.19854
