33
Azulene_H8_Int1_Sub26.log	Energy: -897108.5966524
C          0.77704       -1.59604        0.85591
C         -0.03250       -1.26230        1.97489
C          0.42800       -1.66262       -0.51630
C         -1.36061       -0.90286        1.99749
H          0.48393       -1.29647        2.93712
C         -0.84215       -1.41243       -1.12113
H          1.17430       -2.12291       -1.16882
C         -2.26748       -0.77675        0.92556
H         -1.78369       -0.68467        2.98341
C         -2.00965       -1.00886       -0.52442
H         -0.87595       -1.55481       -2.20584
C         -3.59809       -0.41429        1.04505
C         -3.23115       -0.75977       -1.21187
H         -4.12563       -0.17303        1.96637
C         -4.16946       -0.40431       -0.26069
H         -3.39066       -0.83671       -2.28537
Cl        -5.80134       -0.00195       -0.57916
O          3.00566       -0.51337       -0.95336
C          3.93535       -0.82064       -0.08792
O          3.78343       -0.82226        1.12077
C          5.24784       -1.17090       -0.74857
H          5.08903       -1.86065       -1.58885
H          5.69574       -0.25343       -1.15902
H          5.92841       -1.61003       -0.00960
H          1.78178       -1.94612        1.10795
Pd         1.35405        0.28732       -0.23248
O          1.70312        2.38290       -0.30009
C          0.52466        2.56230        0.11583
O         -0.18881        1.52790        0.32486
C         -0.01198        3.92414        0.38927
H         -1.10556        3.92727        0.30085
H          0.25652        4.20550        1.41934
H          0.44200        4.65312       -0.29378
