38
Azulene_H11_Int1_Sub23_f.log	Energy: -668157.5126496
C          0.46200       -1.23425        1.14651
C         -0.38543       -0.55516        2.08215
C          0.07132       -1.76545       -0.10675
C         -1.68316       -0.14439        1.98143
H          0.11725       -0.29458        3.01822
C         -1.19421       -1.72795       -0.71255
H          0.82770       -2.36800       -0.61912
C         -2.62556       -0.30004        0.90805
H         -2.05368        0.40819        2.84525
C         -2.42417       -1.06905       -0.26328
C         -1.48103       -2.34819       -1.94475
N         -3.81542        0.31642        1.05335
C         -3.39811       -1.33351       -1.24707
C         -2.82285       -2.11337       -2.26194
H         -0.75999       -2.91352       -2.53492
H         -4.44450       -1.02374       -1.23519
H         -3.34390       -2.47886       -3.14709
O          2.81987       -0.64819       -0.39712
C          3.63842       -0.58126        0.61724
O          3.35382       -0.12784        1.71191
C          5.01006       -1.12781        0.29147
H          4.92956       -2.10019       -0.21395
H          5.51372       -0.43980       -0.40400
H          5.60180       -1.21736        1.21021
H          1.41898       -1.56282        1.55513
Pd         1.10086        0.30292       -0.19847
O          1.35354        2.14993       -1.26003
C          0.15264        2.42518       -0.99960
O         -0.51658        1.59175       -0.30641
C         -0.49155        3.66983       -1.51230
H         -0.93405        3.45435       -2.49719
H         -1.29407        3.99107       -0.83632
H          0.25800        4.46131       -1.63651
H         -4.44775        0.23963        0.27005
C         -4.22177        1.16630        2.13958
H         -5.22805        1.54774        1.92556
H         -3.54963        2.03200        2.26123
H         -4.26813        0.62498        3.09893
