33
Azulene_H16_deriv1_Int1_Sub26.log	Energy: -1185431.0219340
C          0.67626       -0.55083        1.86137
C         -0.52994        0.08286        2.22164
C          0.47565       -1.29673        0.66006
C         -1.51882       -0.24964        1.29274
H         -0.66645        0.76294        3.06092
C         -0.91629       -1.15635        0.29920
H          1.11007       -2.10843        0.30480
C         -2.83155        0.26020        1.32777
C         -1.53535       -1.74846       -0.77967
C         -3.87788       -0.01440        0.47670
H         -3.04549        0.95624        2.14286
C         -2.88707       -1.62735       -1.19342
Cl        -0.57114       -2.76400       -1.79919
C         -3.89726       -0.87334       -0.65073
Cl        -5.38531        0.78449        0.81161
H         -3.14738       -2.21124       -2.07863
H         -4.86166       -0.93606       -1.16036
O          3.08680       -0.65153       -0.25156
C          3.91207       -0.62763        0.75744
O          3.68509       -0.12030        1.84245
C          5.22795       -1.30155        0.43816
H          5.05834       -2.27469       -0.04303
H          5.78518       -0.67724       -0.27636
H          5.81590       -1.42067        1.35594
H          1.61573       -0.52825        2.41825
Pd         1.43507        0.42254       -0.16377
O          1.88970        2.24250       -1.20737
C          0.68790        2.58408       -1.05585
O         -0.08837        1.78111       -0.43887
C          0.16383        3.86884       -1.60326
H          0.94921        4.63502       -1.58298
H         -0.13169        3.71009       -2.65190
H         -0.71804        4.19456       -1.03771
