49
Azulene_H8_deriv1_Int1_Sub19.log	Energy: -1044258.0456232
C         -0.54461       -0.52810       -1.78827
C         -1.94206       -0.41395       -1.87800
C          0.40049        0.25600       -1.08414
C         -2.74438        0.52477       -1.25701
H         -2.44937       -1.15157       -2.50132
C          0.21590        1.44169       -0.28497
H          1.42739        0.06466       -1.40173
C         -2.37857        1.59775       -0.41540
Cl        -4.44238        0.34349       -1.57941
C         -1.00968        2.00400        0.02668
C          1.49682        2.06501        0.22076
C         -3.27183        2.49916        0.15230
C         -1.20169        3.15410        0.85675
H         -4.35087        2.47217        0.01592
C         -2.55119        3.44035        0.92754
H         -0.41544        3.71265        1.35837
H         -2.99664        4.26064        1.49109
O          1.91421       -2.07124       -0.07910
C          2.40419       -2.37591       -1.24576
O          1.86389       -2.17831       -2.32086
C          3.77617       -3.00415       -1.13844
H          4.47450       -2.29044       -0.67668
H          3.73496       -3.88577       -0.48337
H          4.13448       -3.28591       -2.13543
H         -0.07080       -1.28696       -2.42040
Pd         0.09860       -1.38874        0.27604
O         -0.49386       -2.62182        1.91992
C         -1.55555       -1.94632        1.99783
O         -1.70971       -0.99238        1.16676
C         -2.61866       -2.25665        2.99408
H         -3.14099       -1.33728        3.28833
H         -3.35150       -2.93171        2.52560
H         -2.18668       -2.76242        3.86635
H          1.23750        2.95738        0.80621
C          2.39431        2.55077       -0.92883
H          1.82932        3.24484       -1.57168
H          2.68336        1.69712       -1.56581
C          3.65576        3.21885       -0.39304
H          4.29576        3.53423       -1.23260
H          3.37750        4.14164        0.14761
C          4.42197        2.29590        0.54785
H          5.31333        2.80728        0.94524
H          4.79118        1.42379       -0.02182
C          3.53460        1.80720        1.68698
H          3.25290        2.66560        2.32382
H          4.08730        1.10877        2.33524
C          2.27485        1.13058        1.16023
H          2.54948        0.20392        0.62946
H          1.62057        0.82393        1.99306
