36
Azulene_H16_deriv1_Int1_Sub6.log	Energy: -921764.1958285
C          0.63193       -1.31385        1.20097
C         -0.59620       -0.85337        1.73158
C          0.49140       -1.58451       -0.19356
C         -1.54506       -0.86131        0.69735
C         -0.79744       -0.33708        3.11442
C         -0.89910       -1.35919       -0.52710
H          1.15421       -2.22068       -0.78205
C         -2.87048       -0.40344        0.82774
C         -1.45270       -1.58832       -1.76187
C         -3.87391       -0.39716       -0.11794
H         -3.14531       -0.00840        1.80886
C         -2.78763       -1.36964       -2.17422
H         -0.77164       -1.97835       -2.52457
C         -3.84187       -0.84478       -1.46340
Cl        -5.41091        0.24112        0.39625
H         -3.01121       -1.64012       -3.20974
H         -4.79005       -0.74842       -1.99779
O          3.08018       -0.61077       -0.79550
C          3.89777       -0.96882        0.15478
O          3.65640       -0.92200        1.34875
C          5.22736       -1.45089       -0.38248
H          5.07918       -2.15458       -1.21322
H          5.78488       -0.58947       -0.78012
H          5.80554       -1.91897        0.42307
H          1.55164       -1.47963        1.76720
Pd         1.41341        0.32784       -0.30672
O          1.85538        2.42564       -0.51594
C          0.65171        2.66634       -0.24158
O         -0.12081        1.67675       -0.01316
C          0.11818        4.05966       -0.21246
H          0.89873        4.75569        0.12001
H         -0.18069        4.34349       -1.23338
H         -0.76403        4.11841        0.43713
H         -0.85687        0.76460        3.11526
H          0.04295       -0.62104        3.76211
H         -1.72158       -0.72104        3.57356
