38
Azulene_H8_Int1_Sub31.log	Energy: -668154.4424403
C          0.79654       -1.63918        0.67365
C         -0.03849       -1.37187        1.79393
C          0.45369       -1.64879       -0.70477
C         -1.36852       -1.02259        1.81483
H          0.46285       -1.45041        2.76195
C         -0.79971       -1.39105       -1.31600
H          1.22788       -2.04203       -1.36911
C         -2.26410       -0.85313        0.73812
H         -1.80529       -0.85100        2.80400
C         -1.99173       -1.02162       -0.72385
H         -0.81457       -1.48789       -2.40589
C         -3.59531       -0.50806        0.86218
C         -3.19710       -0.75757       -1.40042
H         -4.10995       -0.31589        1.80236
C         -4.17947       -0.44055       -0.44869
H         -3.33490       -0.79236       -2.48051
N         -5.46584       -0.12260       -0.70197
O          3.10010       -0.49376       -0.82669
C          3.98410       -0.76551        0.09521
O          3.77189       -0.72789        1.29391
C          5.33105       -1.13219       -0.48541
H          5.21738       -1.86530       -1.29600
H          5.78977       -0.23202       -0.92136
H          5.98033       -1.52712        0.30499
H          1.78711       -2.02444        0.92622
Pd         1.40182        0.29581       -0.20459
O          1.70364        2.40898       -0.29788
C          0.50601        2.56032        0.06825
O         -0.19134        1.51453        0.26741
C         -0.07540        3.91398        0.29916
H         -1.16540        3.88591        0.17718
H          0.15376        4.22223        1.33098
H          0.37985        4.64227       -0.38392
H         -5.76138       -0.10644       -1.66695
C         -6.42825        0.19757        0.31467
H         -7.39377        0.42026       -0.15715
H         -6.12856        1.08231        0.90276
H         -6.58193       -0.64062        1.01629
