46
Benzo13dioxol_H8_deriv1_Int1_Sub19.log	Energy: -1066190.5765512
C          0.48822       -0.89665        1.09729
C         -0.73792       -0.65687        0.51563
C          1.48611       -1.51243        0.27641
C         -1.00299       -1.01562       -0.80697
O         -1.83224       -0.05289        1.03592
C          1.16694       -1.91127       -1.05190
H          2.37135       -1.93415        0.75316
C         -0.07739       -1.65971       -1.61983
O         -2.24421       -0.63927       -1.13270
C         -2.73864        0.14940       -0.03941
Cl         2.36044       -2.74872       -1.97049
H         -0.30749       -1.93171       -2.64883
C         -4.14013       -0.26054        0.33520
H         -2.68939        1.21236       -0.34984
O          3.86875        0.09490        0.77388
C          3.90166       -0.18520        2.04570
O          2.92368       -0.35797        2.75359
C          5.31370       -0.27019        2.57862
H          5.93741       -0.89222        1.92188
H          5.75479        0.73776        2.58749
H          5.30141       -0.67444        3.59771
H          0.73493       -0.66158        2.13359
Pd         2.16371        0.53313       -0.09477
O          2.46604        2.54245       -0.75189
C          1.32437        2.51018       -1.27976
O          0.65740        1.42612       -1.18182
C          0.74262        3.69799       -1.96747
H          0.04160        3.37998       -2.74958
H          0.18950        4.29695       -1.22737
H          1.54213        4.32177       -2.38617
H         -4.08269       -1.33000        0.61004
C         -5.09327       -0.10705       -0.84991
H         -4.73660       -0.71193       -1.69737
H         -5.07760        0.94676       -1.18540
C         -6.51770       -0.49447       -0.46951
H         -7.19042       -0.34267       -1.32851
H         -6.54817       -1.57472       -0.23969
C         -7.00958        0.29096        0.74129
H         -8.02420       -0.03324        1.02282
H         -7.08900        1.36003        0.47221
C         -6.05677        0.14149        1.92226
H         -6.06516       -0.90829        2.26656
H         -6.39964        0.74844        2.77512
C         -4.63133        0.53052        1.54771
H         -4.59712        1.60946        1.30683
H         -3.94679        0.37567        2.39517
