32
Benzooxazole_H10_Int1_Sub6.log	Energy: -642159.2721253
C          0.08085       -1.55005       -0.80862
C          1.13034       -1.33781       -1.77103
C          0.29784       -1.44783        0.59338
C          2.39618       -0.99842       -1.33803
C          0.80678       -1.50183       -3.22525
C          1.60863       -1.11586        0.96245
H         -0.47319       -1.72869        1.31833
C          2.63136       -0.88632        0.04873
H          3.20966       -0.81910       -2.04322
O          2.11986       -0.93252        2.20314
N          3.77855       -0.56344        0.74649
C          3.41183       -0.60740        1.98210
H          4.01886       -0.41964        2.86699
O         -2.50438       -0.37664       -0.31429
C         -3.04590       -0.91958        0.74241
O         -2.46504       -1.16104        1.78595
C         -4.51416       -1.21831        0.54324
H         -4.68361       -1.70773       -0.42563
H         -4.87857       -1.84669        1.36444
H         -5.07204       -0.26989        0.53185
H         -0.85520       -1.99278       -1.15803
Pd        -0.70658        0.41914       -0.19909
O         -1.08837        2.50690       -0.11754
C          0.15821        2.70284       -0.12961
O          0.91357        1.67796       -0.19640
C          0.73845        4.07097       -0.03513
H          1.73889        4.09311       -0.48480
H          0.07191        4.79758       -0.51667
H          0.82737        4.34044        1.02874
H          1.68028       -1.29242       -3.85682
H         -0.00585       -0.82271       -3.52669
H          0.46684       -2.52750       -3.44071
