46
Benzo13dioxol_H8_deriv1_Int1_Sub27.log	Energy: -1066191.4273160
C         -0.96344        0.89849        1.51326
C          0.32619        1.34352        1.31465
C         -1.94365        1.29782        0.54909
C          0.66063        2.15813        0.23163
O          1.44339        1.09249        2.03773
C         -1.57985        2.17333       -0.51314
H         -3.00068        1.18187        0.79177
C         -0.27179        2.60567       -0.69838
O          1.97452        2.40910        0.25068
C          2.53758        1.53316        1.24316
Cl        -2.81052        2.71819       -1.58927
H          0.01196        3.24297       -1.53457
H          3.21489        2.12841        1.87687
C          3.23593        0.36529        0.57787
O         -3.37094       -1.19812        0.07339
C         -3.72976       -1.37173        1.31430
O         -3.06274       -1.06956        2.28890
C         -5.09284       -2.01445        1.43169
H         -5.81407       -1.51579        0.76970
H         -5.02309       -3.06331        1.10661
H         -5.43170       -1.97551        2.47369
H         -1.27890        0.28292        2.35730
Pd        -1.54113       -0.64545       -0.36666
O         -0.78588       -2.32443       -1.45653
C          0.27645       -1.68182       -1.65412
O          0.34997       -0.49808       -1.17916
C          1.43455       -2.27625       -2.38080
H          1.98798       -1.49467       -2.91719
H          2.11355       -2.73450       -1.64466
H          1.09147       -3.05818       -3.06923
H          2.46110       -0.12806       -0.03778
C          3.74712       -0.63218        1.61613
H          2.91264       -0.97542        2.24578
H          4.46170       -0.12061        2.28818
C          4.44190       -1.81283        0.94761
H          4.83024       -2.50511        1.71128
H          3.69624       -2.38415        0.36518
C          5.56235       -1.35519        0.02022
H          6.02207       -2.22015       -0.48442
H          6.36193       -0.88786        0.62329
C          5.05756       -0.34673       -1.00625
H          4.34262       -0.84530       -1.68530
H          5.88678        0.00901       -1.63827
C          4.36295        0.83560       -0.33960
H          5.10115        1.40447        0.25662
H          3.96506        1.52996       -1.09505
