30
Benzo13dioxol_H9_Int1_Sub2.log	Energy: -919037.0158497
C          0.04469       -1.51733       -0.11155
C         -1.16932       -1.44681        0.63052
C          0.07117       -1.10607       -1.47157
C         -2.26991       -0.93297       -0.00270
Cl        -1.23171       -1.93481        2.27347
C         -1.09789       -0.61802       -2.12534
H          0.95420       -1.34177       -2.06904
C         -2.22481       -0.52470       -1.35709
O         -3.50501       -0.72691        0.48165
H         -1.08690       -0.31904       -3.17269
O         -3.44447       -0.06559       -1.70164
C         -4.22649       -0.03682       -0.52265
H         -5.18727       -0.54322       -0.70137
H         -4.38592        1.01029       -0.20807
O          2.71518       -0.09654       -0.76338
C          3.36784       -0.96981       -0.04521
O          2.89927       -1.62759        0.86659
C          4.81687       -1.08111       -0.46270
H          4.90361       -1.14030       -1.55625
H          5.34997       -0.17363       -0.14141
H          5.27197       -1.95879        0.01129
H          0.90884       -2.01989        0.33657
Pd         0.92486        0.52506       -0.23142
O          1.25847        2.50233        0.51020
C          0.01315        2.62532        0.64938
O         -0.72104        1.63576        0.31520
C         -0.60260        3.88407        1.15712
H          0.13959        4.47602        1.70600
H         -0.96211        4.47297        0.29920
H         -1.46577        3.65041        1.79408
