33
Benzo13dioxol_H8_deriv1_Int1_Sub6.log	Energy: -943683.5037641
C          0.13539       -0.91055       -1.27876
C          1.43579       -0.48172       -1.54327
C         -0.09724       -1.63598       -0.05946
C          2.47111       -0.69480       -0.65339
O          1.89818        0.20033       -2.61838
C          1.00632       -1.82369        0.82796
C         -1.33112       -2.48169        0.09557
C          2.28835       -1.36913        0.54899
O          3.60794       -0.15443       -1.14098
C          3.22148        0.58382       -2.29151
Cl         0.74659       -2.70040        2.29621
H          3.10813       -1.52090        1.25000
H          3.89550        0.34469       -3.12785
H          3.25126        1.66538       -2.06006
O         -2.57460        0.19315        0.12236
C         -3.18495        0.00344       -1.01126
O         -2.64594       -0.16615       -2.09225
C         -4.68814       -0.01576       -0.84835
H         -4.97505       -0.82927       -0.16589
H         -5.02696        0.92493       -0.39160
H         -5.16476       -0.15881       -1.82512
H         -0.66790       -0.82239       -2.01782
Pd        -0.65469        0.57114        0.27618
O         -0.74441        2.48951        1.16154
C          0.51514        2.49565        1.23097
O          1.13119        1.46812        0.79616
C          1.26268        3.66631        1.76869
H          2.26786        3.36482        2.08796
H          1.35371        4.42234        0.97350
H          0.70531        4.11709        2.59995
H         -2.01671       -2.30916       -0.74150
H         -1.85747       -2.28059        1.03757
H         -1.03693       -3.54323        0.09636
