36
Benzothiophene_H13_deriv1_Int1_Sub22.log	Energy: -1046117.9042341
C         -0.08090        0.65632       -1.09639
C          1.27652        0.17968       -0.90333
C         -0.80964       -0.19358       -1.94638
C          1.52590       -0.99249       -1.64213
C          2.28446        0.71419       -0.07233
H         -1.74236        0.06741       -2.44899
S          0.14378       -1.51080       -2.57277
C          2.76061       -1.63418       -1.57400
C          3.53563        0.08955       -0.00086
C          1.89840        1.93637        0.72957
C          3.73821       -1.07753       -0.76906
H          2.95580       -2.54789       -2.13824
C          4.68317        0.57099        0.84542
H          4.71493       -1.56390       -0.71357
O         -3.07048        0.47186       -0.35045
C         -3.12492        1.77256       -0.23725
O         -2.17202        2.51095       -0.06950
C         -4.54295        2.28931       -0.32782
H         -5.07773        1.81478       -1.16185
H         -5.07720        2.02283        0.59656
H         -4.53259        3.37963       -0.44226
H         -0.45405        1.64499       -0.80418
Pd        -1.44810       -0.55496        0.09041
O         -1.98662       -1.58321        1.87933
C         -0.86730       -2.16348        1.83985
O         -0.08711       -1.87968        0.87231
C         -0.47004       -3.16944        2.86421
H         -0.91208       -4.14062        2.59320
H          0.62136       -3.27414        2.89430
H         -0.86540       -2.87978        3.84630
F          2.88935        2.42563        1.47519
F          0.88780        1.65506        1.55974
F          1.48996        2.92615       -0.07168
H          4.42475        0.59092        1.91343
H          4.99261        1.59020        0.57525
H          5.54696       -0.09416        0.71587
