33
Benzene_H10_Int1_Sub66.log	Energy: -561778.5480679
C         -0.45940        1.48716        1.15863
C          0.71584        2.10513        1.66219
C         -0.78865        1.57867       -0.22327
C          1.57306        2.75865        0.80471
H          0.92647        2.05380        2.73236
C          0.13262        2.24702       -1.07726
C         -2.17899        1.27935       -0.72282
C          1.28069        2.81874       -0.57417
H          2.48480        3.22263        1.18621
H         -0.09713        2.31718       -2.14322
H          1.97436        3.32492       -1.24908
O         -1.42093       -1.22009        0.89939
C         -1.99436       -1.94165       -0.03056
O         -1.63464       -1.96282       -1.19276
C         -3.15387       -2.75633        0.48929
H         -3.71953       -3.17316       -0.35251
H         -2.76470       -3.57770        1.10966
H         -3.80538       -2.14452        1.12880
H         -1.20961        1.10267        1.85451
Pd         0.26858       -0.41934        0.27535
O          1.53796       -2.08615       -0.03994
C          2.45969       -1.29039       -0.36810
O          2.20570       -0.04315       -0.31574
C          3.78596       -1.78180       -0.83628
H          3.72004       -1.98964       -1.91546
H          4.55689       -1.01864       -0.67260
H          4.04301       -2.71799       -0.32456
H         -2.11743        0.67780       -1.64237
H         -2.69354        0.65687        0.02064
C         -2.97365        2.55899       -0.96784
H         -3.99111        2.32068       -1.31211
H         -3.05904        3.15787       -0.04772
H         -2.50130        3.19337       -1.73337
