39
Benzo13dioxol_H9_Int1_Sub29.log	Energy: -704675.1706135
C          0.93439       -1.71444        0.51393
C         -0.23737       -1.66971        1.32136
C          0.84333       -1.69608       -0.90512
C         -1.43087       -1.56371        0.66320
H         -0.17630       -1.68903        2.40903
C         -0.42337       -1.64388       -1.55961
H          1.73785       -1.91107       -1.49317
C         -1.52218       -1.54931       -0.75232
O         -2.67035       -1.46455        1.17419
H         -0.50627       -1.65083       -2.64613
O         -2.81738       -1.43969       -1.09856
C         -3.54245       -1.14055        0.09320
H         -4.41763       -1.81003        0.14233
C         -3.93600        0.32675        0.13559
O          3.23445       -0.08373       -0.61068
C          4.01634       -0.38087        0.39226
O          3.64296       -0.58818        1.53293
C          5.47223       -0.43456       -0.01171
H          5.59729       -1.00786       -0.94058
H          5.82564        0.58863       -0.20927
H          6.06494       -0.87533        0.79860
H          1.89548       -1.89897        0.99955
Pd         1.35302        0.35147       -0.22818
O          1.28638        2.49339       -0.14794
C          0.03986        2.42000        0.00415
O         -0.49016        1.25916        0.02548
C         -0.81417        3.63402        0.15199
H         -0.19700        4.53980        0.16332
H         -1.52823        3.67801       -0.68367
H         -1.39659        3.55905        1.08158
H         -2.98303        0.88343        0.08151
C         -4.79399        0.67803       -1.07230
H         -5.04000        1.75018       -1.06911
H         -4.27550        0.44762       -2.01345
H         -5.74572        0.12088       -1.06046
C         -4.62930        0.64888        1.45250
H         -3.99247        0.39843        2.31235
H         -4.87235        1.72041        1.50554
H         -5.57508        0.09038        1.55225
