34
Benzofuran_H13_deriv1_Int1_Sub16.log	Energy: -967574.5857018
C          0.28167       -1.43541        0.41401
C         -1.02550       -1.30575        1.02727
C          0.06084       -1.20130       -0.96001
C         -1.90591       -0.97910       -0.01519
C         -1.48019       -1.42468        2.34199
Cl         0.96233       -1.70919       -2.31286
O         -1.24595       -0.95575       -1.21773
C         -3.25689       -0.69068        0.20150
C         -2.83529       -1.20458        2.56299
H         -0.79370       -1.67329        3.15200
C         -3.69624       -0.84046        1.52210
O         -4.15041       -0.31373       -0.72371
H         -3.24181       -1.29544        3.57244
H         -4.75240       -0.64257        1.71483
O          2.78164       -0.11407       -0.29522
C          3.40785       -0.64389        0.71949
O          2.89561       -0.92332        1.78972
C          4.86914       -0.88871        0.42285
H          4.97692       -1.45298       -0.51415
H          5.37741        0.07641        0.28149
H          5.32985       -1.43341        1.25516
H          1.16392       -1.88376        0.87042
Pd         0.94816        0.56587       -0.05396
O          1.19457        2.68283        0.08192
C         -0.06046        2.79484        0.12110
O         -0.75417        1.72623        0.05714
C         -0.72546        4.12514        0.20853
H         -1.74136        4.01948        0.60849
H         -0.12631        4.80350        0.82933
H         -0.78492        4.55556       -0.80310
C         -3.69519        0.31017       -1.90716
H         -2.95870        1.09732       -1.68018
H         -3.24425       -0.41373       -2.60275
H         -4.58011        0.75810       -2.37669
