38
Benzothiophene_H9_deriv1_Int1_Sub31.log	Energy: -894075.4910547
C          0.00773        1.21548       -1.13885
C          1.22603        1.67220       -0.58851
C         -0.01161       -0.08694       -1.69709
C          2.37827        0.86392       -0.58088
S          1.51290        3.20312        0.16133
C          1.15882       -0.91410       -1.70964
H         -0.87976       -0.39417       -2.28627
C          2.31850       -0.43521       -1.14708
C          3.48193        1.52689        0.04115
C          3.15502        2.77872        0.47593
C          1.08021       -2.30094       -2.32675
H          3.21243       -1.06467       -1.11995
H          4.47243        1.08586        0.15734
H          3.80548        3.49558        0.97654
O         -2.65639       -0.22903       -0.59583
C         -3.31171        0.89895       -0.64944
O         -2.85438        1.98913       -0.35392
C         -4.73656        0.71365       -1.11826
H         -4.77139        0.07326       -2.01039
H         -5.30860        0.20416       -0.32839
H         -5.18832        1.69095       -1.32526
H         -0.85332        1.88316       -1.23401
Pd        -0.90589       -0.25616        0.30797
O         -1.34872       -0.99719        2.25013
C         -0.11361       -0.98008        2.50737
O          0.67429       -0.57122        1.59310
C          0.42168       -1.45584        3.81372
H         -0.31342       -1.28296        4.60967
H          0.60470       -2.53936        3.74262
H          1.37258       -0.95750        4.04001
H          1.45614       -2.24967       -3.36389
H          0.01460       -2.57738       -2.40885
N          1.77363       -3.35973       -1.64353
H          2.78136       -3.25580       -1.71364
C          1.35429       -3.59061       -0.28079
H          1.90694       -4.44580        0.13629
H          0.28437       -3.85858       -0.26958
H          1.48038       -2.72554        0.40141
