33
Benzothiophene_H9_Int1_Sub14.log	Energy: -834722.9718534
C          0.30621       -1.45138        0.20247
C          1.61102       -1.19332       -0.27717
C         -0.01261       -1.00840        1.50985
C          2.56230       -0.52001        0.50884
S          2.24299       -1.61105       -1.83072
C          0.95744       -0.33800        2.33240
H         -0.93946       -1.35962        1.97049
C          2.21136       -0.10125        1.82016
C          3.80225       -0.36298       -0.18485
C          3.76535       -0.90226       -1.43864
C          0.56378        0.08136        3.71526
H          2.95764        0.41757        2.42735
H          4.67888        0.13106        0.23532
H          4.57015       -0.92393       -2.17307
O         -2.59244       -0.48306        0.35057
C         -2.96716       -1.36029       -0.54035
O         -2.26005       -1.80565       -1.42742
C         -4.41005       -1.77597       -0.36565
H         -4.62460       -2.00163        0.68799
H         -5.06024       -0.93813       -0.65908
H         -4.62463       -2.64446       -0.99951
H         -0.38639       -2.07896       -0.36605
Pd        -0.87376        0.45134        0.10278
O         -1.41832        2.29574       -0.79709
C         -0.20715        2.64744       -0.73704
O          0.62075        1.82754       -0.22406
C          0.24205        3.98397       -1.21923
H         -0.33652        4.27650       -2.10494
H          0.05159        4.72648       -0.42903
H          1.31660        3.96918       -1.43889
H          0.23811       -0.78386        4.31468
H         -0.28081        0.78787        3.68533
H          1.39672        0.56727        4.24101
