35
Benzo13dioxol_H8_Int1_Sub23.log	Energy: -690085.0828455
C          0.36891       -1.74231       -1.33282
C          1.59180       -1.59489       -0.74039
C         -0.75644       -1.77556       -0.46249
C          1.76372       -1.54577        0.66890
O          2.79383       -1.43301       -1.32443
C         -0.58888       -1.71888        0.94898
H         -1.74090       -1.97586       -0.89005
C          0.70691       -1.63845        1.53454
O          3.06404       -1.36492        0.93331
C          3.66969       -0.93488       -0.32806
H         -1.45427       -1.90624        1.58775
H          0.84507       -1.60686        2.61505
H          4.64698       -1.43566       -0.38549
N          3.78429        0.44731       -0.45021
O         -2.95466       -0.06069        0.68817
C         -3.77880       -0.33702       -0.28856
O         -3.44892       -0.54321       -1.44180
C         -5.21879       -0.36610        0.16974
H         -5.31980       -0.94054        1.10078
H         -5.54623        0.66257        0.38277
H         -5.84841       -0.79334       -0.61968
H          0.25040       -1.77928       -2.41533
Pd        -1.08789        0.32756        0.22039
O         -1.01791        2.45993        0.08914
C          0.21971        2.39764       -0.11918
O          0.76471        1.24242       -0.13565
C          1.04647        3.61838       -0.34742
H          1.86038        3.65323        0.39163
H          1.50536        3.56292       -1.34570
H          0.43014        4.52139       -0.26989
H          2.85648        0.87999       -0.44614
C          4.72206        1.09289        0.43763
H          4.80846        2.15559        0.16978
H          5.72136        0.64530        0.31522
H          4.45074        1.02365        1.50798
