33
Benzo13dioxol_H8_deriv1_Int1_Sub25.log	Energy: -1130428.2445064
C         -0.42431        0.61203        1.47921
C          0.94579        0.74207        1.30369
C         -1.25198        1.46818        0.68667
C          1.48622        1.63799        0.40017
O          1.95288        0.05543        1.91346
C         -0.66149        2.41129       -0.20050
H         -2.31072        1.57199        0.93084
C          0.71319        2.50183       -0.37009
O          2.83466        1.53398        0.41234
C          3.14604        0.48802        1.31178
Cl        -1.69793        3.46497       -1.08533
H          1.16231        3.20102       -1.07400
H          3.85839        0.84569        2.07565
C          3.79615       -0.67152        0.54793
O         -3.13825       -0.72632        0.27310
C         -3.34051       -1.20453        1.46927
O         -2.48954       -1.33626        2.33240
C         -4.78043       -1.60846        1.68730
H         -5.46337       -0.83711        1.30624
H         -4.97953       -2.53046        1.12046
H         -4.95592       -1.79185        2.75392
H         -0.87834       -0.05439        2.22065
Pd        -1.32590       -0.42486       -0.42788
O         -1.05782       -1.97956       -1.86202
C          0.05522       -1.46706       -2.15368
O          0.38476       -0.39666       -1.53836
C          0.97310       -2.06337       -3.16175
H          1.13568       -1.34254       -3.97628
H          1.94754       -2.25136       -2.68852
H          0.55417       -2.99438       -3.56052
F          2.97166       -1.16936       -0.36467
F          4.12423       -1.63602        1.39912
F          4.89859       -0.24588       -0.05919
