34
Benzo13dioxol_H9_Int1_Sub32.log	Energy: -702543.5202759
C          0.61909       -1.66208        0.55961
C         -0.58001       -1.53261        1.31572
C          0.58551       -1.67915       -0.86223
C         -1.73919       -1.39293        0.60524
H         -0.56420       -1.52739        2.40517
C         -0.64926       -1.57797       -1.56986
H          1.48873       -1.95873       -1.40835
C         -1.77114       -1.41329       -0.80912
O         -3.00178       -1.24436        1.05535
H         -0.69019       -1.61266       -2.65820
O         -3.05430       -1.27258       -1.21067
C         -3.81170       -0.94820       -0.07996
H         -4.71307       -1.58658       -0.02452
O         -4.12122        0.37243       -0.14552
O          3.06013       -0.18788       -0.55357
C          3.79797       -0.54216        0.46275
O          3.38584       -0.74345        1.59187
C          5.25851       -0.67404        0.09469
H          5.37423       -1.25472       -0.83092
H          5.67107        0.32812       -0.09569
H          5.80739       -1.14546        0.91848
H          1.55078       -1.88014        1.08801
Pd         1.19358        0.35407       -0.22364
O          1.21421        2.49894       -0.20725
C         -0.03872        2.46797       -0.07831
O         -0.60056        1.32449       -0.03253
C         -0.85097        3.71161        0.04444
H         -0.74617        4.10299        1.06794
H         -0.47267        4.47611       -0.64690
H         -1.90802        3.49329       -0.15139
C         -4.99706        0.81745        0.86268
H         -5.93664        0.23478        0.86501
H         -4.53129        0.74851        1.85907
H         -5.23122        1.86633        0.64453
