39
Benzofuran_H13_deriv1_Int1_Sub29.log	Energy: -969712.6841887
C          0.49607       -1.33617        0.38916
C         -0.92314       -1.10660        0.55889
C          0.69693       -1.27096       -1.00795
C         -1.44588       -0.92102       -0.72653
C         -1.77900       -1.00878        1.66053
Cl         1.92111       -1.96798       -1.96658
O         -0.46698       -1.04525       -1.67034
C         -2.77682       -0.63196       -0.97742
C         -3.11889       -0.73663        1.42528
H         -1.39760       -1.13866        2.67502
C         -3.63175       -0.54413        0.12324
H         -3.13683       -0.47866       -1.99600
H         -3.79861       -0.66132        2.27721
C         -5.09821       -0.22764       -0.08228
O          3.21212       -0.14026        0.18678
C          3.57596       -0.73750        1.28570
O          2.83050       -1.07822        2.18936
C          5.06643       -0.98728        1.32683
H          5.37304       -1.56076        0.44035
H          5.60158       -0.02729        1.29342
H          5.32623       -1.53213        2.24186
H          1.20100       -1.71846        1.13285
Pd         1.39428        0.57495       -0.07602
O          1.68430        2.69102        0.00148
C          0.46080        2.83093       -0.27065
O         -0.23523        1.77594       -0.43680
C         -0.15762        4.17760       -0.42518
H         -1.24345        4.11850       -0.28177
H          0.29635        4.88256        0.28306
H          0.04590        4.54195       -1.44396
H         -5.25576       -0.14623       -1.17100
C         -5.99896       -1.34985        0.43213
H         -7.05533       -1.13019        0.21292
H         -5.74501       -2.31289       -0.03514
H         -5.90575       -1.47166        1.52287
C         -5.46685        1.11952        0.53948
H         -4.83142        1.92707        0.14651
H         -6.51694        1.37214        0.32528
H         -5.34561        1.10108        1.63417
