30
Benzene_H10_Int1_Sub27.log	Energy: -537130.7741645
C          0.44304       -1.79135       -0.28508
C          1.79757       -1.77215       -0.73272
C          0.12898       -1.54773        1.07544
C          2.78371       -1.48621        0.19383
C          2.10463       -2.05748       -2.17002
C          1.17065       -1.27348        1.99300
H         -0.89138       -1.68125        1.44291
C          2.47458       -1.24036        1.54777
H          3.82724       -1.45276       -0.12940
H          0.92806       -1.09396        3.04176
H          3.28478       -1.02105        2.24687
O         -1.99732       -0.35484       -0.73762
C         -2.93317       -0.46085        0.16797
O         -2.75616       -0.34504        1.36726
C         -4.29017       -0.73987       -0.43595
H         -5.00148       -0.99960        0.35694
H         -4.63955        0.16106       -0.96223
H         -4.22601       -1.54708       -1.17868
H         -0.33621       -2.16435       -0.95473
Pd        -0.24495        0.32041       -0.14446
O         -0.36417        2.40432       -0.48496
C          0.83645        2.50792       -0.10662
O          1.44320        1.43839        0.22294
C          1.51280        3.83189       -0.01228
H          1.28136        4.27368        0.96930
H          2.60027        3.71249       -0.09384
H          1.13053        4.50683       -0.78855
H          1.71969       -3.04564       -2.46819
H          3.18565       -2.03793       -2.36295
H          1.62595       -1.31422       -2.82687
