36
Benzothiophene_H13_deriv1_Int1_Sub30.log	Energy: -983871.3470294
C          0.09655        0.68879       -1.03893
C          1.46543        0.29058       -0.78181
C         -0.53074       -0.17308       -1.95512
C          1.83652       -0.83967       -1.54170
C          2.39123        0.84235        0.12417
H         -1.44606        0.04920       -2.50629
S          0.53698       -1.40974       -2.56096
C          3.10419       -1.41368       -1.43577
C          3.65535        0.27742        0.21886
C          2.00427        2.01563        1.00130
C          4.00913       -0.83492       -0.55820
H          3.37437       -2.29229       -2.02435
H          4.37120        0.69983        0.92440
H          5.01033       -1.26022       -0.45945
O         -2.89439        0.42147       -0.41666
C         -2.99179        1.72042       -0.35637
O         -2.06691        2.50607       -0.23676
C         -4.42858        2.18415       -0.44334
H         -4.95962        1.65462       -1.24600
H         -4.93713        1.93918        0.50128
H         -4.46009        3.26815       -0.60458
H         -0.36688        1.63722       -0.73629
Pd        -1.27021       -0.60240        0.03954
O         -1.85578       -1.71393        1.76646
C         -0.72257       -2.26733        1.74463
O          0.08197       -1.93057        0.81428
C         -0.33357       -3.30028        2.74464
H         -0.73618       -4.27257        2.42121
H          0.75871       -3.37457        2.81146
H         -0.77241       -3.05916        3.72132
F          2.94187        2.16560        1.97670
F          0.83921        1.71102        1.63966
C          1.84842        3.33304        0.28419
H          1.56474        4.09816        1.01970
H          1.06635        3.27243       -0.48219
H          2.79905        3.61188       -0.18879
