34
Benzoisoxazole_H8_Int1_Sub23.log	Energy: -676842.5838735
C          0.26104       -1.17785        1.13423
C          0.15190       -1.62627       -0.21648
C          1.49161       -0.69577        1.57401
C          1.33474       -1.66106       -1.01220
C         -0.77005       -2.40097       -1.02288
C          2.62188       -0.64547        0.72175
H          1.56664       -0.33440        2.59845
C          2.54674       -1.17632       -0.59320
O          1.07261       -2.29119       -2.16408
H         -1.81137       -2.63688       -0.81163
N         -0.23925       -2.75323       -2.14663
N          3.79638       -0.12288        1.15105
H          3.42268       -1.21038       -1.24253
O         -2.49032       -0.33125        0.07794
C         -2.96439       -0.21496        1.28875
O         -2.31670        0.14093        2.25774
C         -4.43155       -0.56771        1.37272
H         -4.73381       -0.64970        2.42348
H         -5.01704        0.22554        0.88405
H         -4.64005       -1.50329        0.83541
H         -0.57069       -1.25039        1.83754
Pd        -0.69632        0.42944       -0.25739
O         -1.07202        2.44573       -0.77353
C          0.16332        2.59561       -0.98340
O          0.91871        1.58626       -0.80200
C          0.72087        3.89321       -1.45847
H          0.14232        4.72747       -1.04176
H          1.78085        3.97522       -1.18788
H          0.63496        3.93167       -2.55541
H          4.54984       -0.07415        0.48160
C          3.99476        0.48152        2.43734
H          5.02107        0.86490        2.49834
H          3.85767       -0.24112        3.26014
H          3.30434        1.32630        2.60747
