37
Benzothiophene_H9_deriv1_Int1_Sub16.log	Energy: -906537.7235368
C          0.21836        1.38470        0.72530
C         -0.95226        1.69207       -0.00960
C          0.11242        0.39306        1.73263
C         -2.16002        1.01856        0.22272
S         -1.11494        2.86719       -1.26655
C         -1.11451       -0.29659        1.99699
H          0.93915        0.27595        2.43785
C         -2.21854        0.00381        1.22239
C         -3.20821        1.48191       -0.62942
C         -2.78173        2.46971       -1.47018
C         -1.16982       -1.33815        3.07075
O         -3.39668       -0.64964        1.39503
H         -4.22814        1.10022       -0.59810
H         -3.37136        3.00589       -2.21344
O          2.78780       -0.16872        0.78009
C          3.48162        0.84572        0.33878
O          3.06160        1.70235       -0.41894
C          4.89707        0.84837        0.86895
H          4.90548        0.67270        1.95353
H          5.45546        0.02410        0.40046
H          5.38101        1.80208        0.62751
H          1.11335        2.00313        0.62534
Pd         1.03953       -0.52939       -0.05370
O          1.44690       -2.02522       -1.51427
C          0.21326       -2.07197       -1.77020
O         -0.56174       -1.31803       -1.09564
C         -0.32990       -2.94759       -2.84748
H          0.34121       -3.79742       -3.02230
H         -1.33966       -3.29025       -2.58729
H         -0.39715       -2.35874       -3.77535
H         -0.62989       -1.00450        3.96945
H         -0.69540       -2.27665        2.73929
H         -2.20925       -1.55777        3.34636
C         -3.52703       -1.82367        0.61710
H         -3.40716       -1.60553       -0.45710
H         -2.77319       -2.57802        0.89976
H         -4.53151       -2.22413        0.80628
