27
Benzene_H10_Int1_Sub60.log	Energy: -800798.5644157
C          0.36028        1.59654        0.19731
C          0.17635        1.24653        1.55893
C          1.67178        1.55076       -0.34057
C          1.28547        0.85713        2.34970
H         -0.79331        1.42706        2.02758
C          2.74390        1.15859        0.43423
Cl         1.90298        1.98515       -1.99162
C          2.54241        0.80841        1.78349
H          1.13547        0.60671        3.40123
H          3.74096        1.11863       -0.00648
H          3.40134        0.49745        2.38209
O         -2.27344        0.06967        0.59915
C         -2.86982        0.78833       -0.31523
O         -2.31610        1.30343       -1.26953
C         -4.35576        0.90998       -0.06961
H         -4.77620        1.68231       -0.72446
H         -4.83279       -0.05668       -0.29082
H         -4.55924        1.14077        0.98500
H         -0.45396        2.01730       -0.40059
Pd        -0.41793       -0.50726        0.28809
O         -0.63083       -2.49390       -0.39862
C          0.62826       -2.58825       -0.43272
O          1.30157       -1.57416       -0.05650
C          1.30750       -3.81773       -0.92566
H          1.41329       -3.74309       -2.01908
H          2.30824       -3.90398       -0.48443
H          0.69837       -4.70206       -0.69995
