37
Benzothiophene_H9_deriv1_Int1_Sub32.log	Energy: -906533.2841082
C          0.11200        0.10520       -1.42643
C          0.97840        1.20406       -1.22103
C          0.47963       -1.13726       -0.85106
C          2.16149        1.08048       -0.46961
S          0.75873        2.81410       -1.80870
C          1.68954       -1.27175       -0.09618
H         -0.06087       -2.03792       -1.15426
C          2.49982       -0.17801        0.09177
C          2.86926        2.32042       -0.39365
C          2.23067        3.32202       -1.06612
C          2.03045       -2.60605        0.52486
H          3.41535       -0.28957        0.67730
H          3.81011        2.45384        0.14110
H          2.55146        4.35829       -1.17016
O         -2.36574       -1.39315       -0.47831
C         -3.09119       -0.87877       -1.43395
O         -2.90365        0.21072       -1.94690
C         -4.22508       -1.78830       -1.84833
H         -3.86764       -2.81841       -1.98339
H         -4.97821       -1.80668       -1.04629
H         -4.68292       -1.41274       -2.77105
H         -0.73386        0.18253       -2.11555
Pd        -1.06154       -0.23898        0.44680
O         -2.07851        0.39107        2.20145
C         -1.02138        0.97696        2.56603
O         -0.00863        0.89787        1.79769
C         -0.93834        1.70974        3.86054
H         -1.92629        2.09663        4.13978
H         -0.60776        1.00773        4.64165
H         -0.20242        2.52061        3.79073
H          1.62504       -3.42144       -0.10853
H          1.52325       -2.68405        1.50148
O          3.39122       -2.78308        0.76912
C          4.13815       -3.07392       -0.37752
H          3.79441       -4.01044       -0.85787
H          4.08893       -2.26420       -1.12959
H          5.18466       -3.20291       -0.06918
