32
Benzoisoxazole_H11_Int1_Sub22.log	Energy: -642134.8239485
C         -0.11094       -1.55783        0.18412
C         -1.37416       -1.31864        0.77568
C         -0.07672       -1.38127       -1.22346
C         -2.49063       -0.90599        0.06085
O         -1.67717       -1.42376        2.07105
C         -1.23116       -0.97521       -1.96048
H          0.80773       -1.71211       -1.77208
C         -2.43978       -0.71652       -1.34808
C         -3.47767       -0.77532        1.08480
N         -2.99078       -1.08305        2.25422
H         -1.14049       -0.86627       -3.04321
C         -3.64525       -0.25009       -2.09632
H         -4.52071       -0.46922        1.00995
O          2.56717       -0.35176       -0.65207
C          3.19815       -1.07080        0.23825
O          2.71167       -1.49742        1.26978
C          4.63883       -1.31830       -0.14542
H          5.20465       -0.38255       -0.02240
H          5.06634       -2.09094        0.50443
H          4.71667       -1.61048       -1.20150
H          0.71515       -2.00429        0.74718
Pd         0.80397        0.41469       -0.23169
O          1.23144        2.45574        0.15248
C         -0.00582        2.65764        0.29828
O         -0.78743        1.66362        0.13441
C         -0.54207        3.99216        0.68316
H          0.11565        4.78689        0.30969
H         -1.56502        4.11560        0.30605
H         -0.56857        4.05300        1.78225
H         -3.92925        0.76323       -1.76922
H         -4.50937       -0.90655       -1.90787
H         -3.46193       -0.22096       -3.17841
