33
Benzofuran_H14_Int1_Sub9.log	Energy: -818841.9158703
C         -0.53074       -0.34482        1.79377
C          0.19568       -1.00080        0.78278
O          0.22091        0.60794        2.39476
C          1.49887       -0.36355        0.79016
H         -0.05798       -1.96267        0.33939
C          1.43582        0.61767        1.78635
C          2.67204       -0.50106        0.03853
C          2.48895        1.47232        2.08124
C          3.74384        0.33543        0.32366
C          2.72372       -1.51338       -1.06981
C          3.65016        1.30614        1.33390
H          2.39911        2.23132        2.85895
H          4.66508        0.23641       -0.25167
H          4.50987        1.94968        1.53138
O         -2.35476       -1.27237       -0.48460
C         -3.23725       -1.64356        0.40255
O         -3.32460       -1.20531        1.53708
C         -4.17770       -2.69749       -0.13307
H         -4.83899       -2.23781       -0.88275
H         -3.61621       -3.49431       -0.63986
H         -4.78006       -3.10770        0.68588
H         -1.48514       -0.60906        2.25974
Pd        -1.22104        0.31075       -0.17915
O         -2.02801        1.80983       -1.47164
C         -1.08829        2.56773       -1.10990
O         -0.24973        2.10817       -0.26376
C         -0.96355        3.96272       -1.61578
H         -1.58465        4.61935       -0.98700
H          0.07807        4.30087       -1.55216
H         -1.33681        4.02404       -2.64583
F          3.92336       -1.56970       -1.64479
F          1.82942       -1.22582       -2.02311
F          2.42897       -2.73945       -0.62057
