30
Benzofuran_H9_Int1_Sub18.log	Energy: -895759.0077076
C          0.09414       -1.41415        0.46524
C          1.43444       -1.01527        0.35937
C         -0.55270       -1.06766        1.68340
C          2.12386       -0.30887        1.34920
O          2.23604       -1.22823       -0.71036
C          0.14736       -0.36547        2.71362
H         -1.52573       -1.50854        1.90911
C          1.45771        0.02039        2.55472
C          3.43784       -0.08733        0.82421
C          3.42372       -0.66569       -0.41079
H         -0.38179       -0.14120        3.64162
H          1.97884        0.56905        3.34155
H          4.27644        0.42827        1.28316
Cl         4.63001       -0.79007       -1.58951
O         -2.89584       -0.61003        0.06388
C         -3.02793       -1.55738       -0.82448
O         -2.12448       -2.02694       -1.49380
C         -4.46033       -2.02223       -0.95569
H         -4.91343       -2.17225        0.03377
H         -5.04219       -1.24018       -1.46635
H         -4.49675       -2.94668       -1.54405
H         -0.38397       -2.05130       -0.28631
Pd        -1.21430        0.40888        0.17453
O         -1.67640        2.23495       -0.80538
C         -0.51985        2.64769       -0.51509
O          0.23415        1.86674        0.15265
C         -0.03058        3.98207       -0.96091
H          0.76882        4.33705       -0.29876
H          0.37595        3.88314       -1.97935
H         -0.86253        4.69693       -0.99397
