49
Benzothiophene_H9_deriv1_Int1_Sub19.log	Energy: -981875.3431421
C         -1.26744       -1.53512        0.38559
C          0.04131       -1.61840       -0.14035
C         -1.43904       -0.87383        1.62740
C          1.13739       -1.04540        0.52526
S          0.51029       -2.34795       -1.63413
C         -0.31851       -0.33623        2.34828
H         -2.40361       -0.95466        2.13491
C          0.93327       -0.41988        1.78404
C          2.36250       -1.18959       -0.21484
C          2.15141       -1.88049       -1.37822
C         -0.55635        0.30647        3.68009
H          1.78966        0.00595        2.31264
C          3.65843       -0.56782        0.21824
H          2.89533       -2.14349       -2.12911
O         -3.86151        0.09218        0.39367
C         -4.44348       -0.77051       -0.39438
O         -3.87434       -1.45953       -1.22262
C         -5.93893       -0.82639       -0.17938
H         -6.17549       -0.88393        0.89204
H         -6.38955        0.10091       -0.56388
H         -6.35810       -1.68613       -0.71534
H         -2.09777       -2.06156       -0.09302
Pd        -1.97971        0.56981        0.05447
O         -2.08954        2.37805       -1.06376
C         -0.82977        2.44126       -1.02808
O         -0.20914        1.51767       -0.40932
C         -0.08348        3.56780       -1.65705
H         -0.60459        3.90583       -2.56183
H         -0.05044        4.40921       -0.94781
H          0.94462        3.26098       -1.88658
H         -1.00998       -0.40491        4.38884
H         -1.25146        1.15604        3.58828
H          0.37921        0.67687        4.12060
H          3.74161       -0.70899        1.31306
C          3.64511        0.94718       -0.04730
H          2.75138        1.40442        0.40559
H          3.54203        1.10004       -1.13667
C          4.92062        1.61503        0.45166
H          4.89909        2.69257        0.22148
H          4.96447        1.53569        1.55334
C          6.16310        0.96604       -0.14879
H          7.07593        1.42843        0.26018
H          6.17926        1.15734       -1.23719
C          6.17659       -0.53997        0.09208
H          6.28108       -0.73508        1.17480
H          7.05505       -0.99856       -0.38962
C          4.89799       -1.20032       -0.41216
H          4.84420       -1.08339       -1.50976
H          4.91187       -2.28369       -0.21077
