42
Benzothiophene_H9_deriv1_Int1_Sub5.log	Energy: -908670.8397554
C         -0.18899       -0.71551        1.11087
C         -1.53883       -0.30508        1.25350
C          0.17867       -1.61413        0.06647
C         -2.52703       -0.75885        0.37007
S         -2.18145        0.76130        2.44805
C         -0.84422       -2.05182       -0.85949
C          1.52255       -2.31586        0.22055
C         -2.14403       -1.63069       -0.67868
C         -3.81387       -0.22488        0.69460
C         -3.76789        0.59457        1.78521
C         -0.52797       -2.92138       -2.04095
H         -2.90992       -1.96757       -1.38212
H         -4.72552       -0.44235        0.13722
H         -4.59758        1.12966        2.24645
O          2.32185        0.59339        0.51649
C          2.32258        1.32825        1.59658
O          1.32483        1.81655        2.09717
C          3.70603        1.51638        2.17342
H          4.23200        0.55371        2.24043
H          4.29089        2.16081        1.50019
H          3.63552        1.98718        3.16108
H          0.50929       -0.52792        1.92765
Pd         0.60676        0.57310       -0.46556
O          0.83306        2.15106       -1.86888
C         -0.31615        1.88254       -2.31609
O         -0.93875        0.90240       -1.79447
C         -0.94804        2.70041       -3.38987
H         -0.17711        3.15654       -4.02328
H         -1.63383        2.08396       -3.98470
H         -1.53050        3.50620       -2.91694
H         -0.00582       -3.84722       -1.76093
H          0.11383       -2.38829       -2.75901
H         -1.45177       -3.20187       -2.56460
H          2.06938       -1.70921        0.95674
C          1.31250       -3.70072        0.83720
H          2.28461       -4.16744        1.05943
H          0.74384       -3.63636        1.77704
H          0.76594       -4.37746        0.16275
C          2.41653       -2.35952       -1.01640
H          2.49081       -1.36778       -1.48637
H          3.43290       -2.65698       -0.71710
H          2.07605       -3.08026       -1.77139
