32
Benzoisoxazole_H9_Int1_Sub30.log	Energy: -642138.6064564
C         -0.13971       -1.22235        1.35707
C          0.46978       -1.50727        0.10832
C          0.60129       -0.57798        2.40016
C          1.82810       -1.12798       -0.05079
H         -0.03085       -2.15214       -0.61713
C          1.91166       -0.19916        2.23288
H          0.09480       -0.39052        3.34876
C          2.49556       -0.48285        0.98263
C          2.81407       -1.19356       -1.08930
H          2.48111        0.29956        3.01784
O          3.74092       -0.19958        0.60128
C          2.67902       -1.76270       -2.45450
N          3.92955       -0.64392       -0.68771
O         -2.18597       -0.86699       -0.80065
C         -3.19075       -1.12814       -0.00612
O         -3.22830       -0.84831        1.17852
C         -4.32787       -1.81896       -0.72154
H         -3.95279       -2.64579       -1.34030
H         -5.05816       -2.18357        0.01040
H         -4.81373       -1.09954       -1.39761
H         -1.12779       -1.62106        1.59767
Pd        -0.77145        0.31708       -0.10825
O         -1.27555        2.24397       -0.84420
C         -0.20559        2.68293       -0.33970
O          0.53605        1.85001        0.27955
C          0.20032        4.11025       -0.46149
H         -0.60199        4.69903       -0.92101
H          0.44937        4.50731        0.53254
H          1.10911        4.17268       -1.07842
H          2.42953       -2.83365       -2.40894
H          3.61819       -1.64036       -3.00818
H          1.87061       -1.25629       -3.00389
