32
Benzoisoxazole_H8_Int1_Sub6.log	Energy: -642129.5565085
C          0.10749       -1.55111        0.51581
C          1.10416       -1.51304       -0.50045
C          0.48715       -1.18204        1.83318
C          2.40481       -1.09817       -0.19368
C          1.19877       -1.81997       -1.89749
C          1.81090       -0.76182        2.07848
C         -0.50080       -1.30236        2.95030
C          2.78838       -0.72337        1.09027
O          3.16223       -1.14124       -1.30160
H          0.42417       -2.17598       -2.57556
N          2.39960       -1.59463       -2.34549
H          2.07676       -0.45930        3.09367
H          3.80849       -0.40188        1.30387
O         -1.98035       -0.37240       -1.03103
C         -2.98965       -0.67726       -0.26444
O         -2.96552       -0.63093        0.95440
C         -4.21705       -1.08851       -1.04079
H         -4.95127       -1.53965       -0.36284
H         -4.65580       -0.19531       -1.51055
H         -3.95363       -1.78564       -1.84805
H         -0.84128       -2.06424        0.35539
Pd        -0.44006        0.48119       -0.14678
O         -0.68471        2.53465       -0.60741
C          0.41980        2.76317       -0.04464
O          1.03279        1.76710        0.46532
C          1.01327        4.12784        0.00145
H          0.22479        4.88676       -0.07308
H          1.59788        4.25605        0.92138
H          1.69342        4.24390       -0.85657
H         -0.46386       -2.31951        3.37609
H         -1.51974       -1.11943        2.58089
H         -0.27331       -0.59552        3.76022
