41
Benzoisoxazole_H8_deriv1_Int1_Sub29.log	Energy: -716079.5980595
C          0.49698        1.06116        1.33803
C          0.71140        1.83714        0.16429
C         -0.83632        0.80106        1.70302
C         -0.40658        2.33678       -0.54516
C          1.81425        2.47947       -0.51080
C         -1.92496        1.25388        0.94647
H         -1.01971        0.22434        2.61144
C         -1.71041        2.05470       -0.19132
O          0.02154        3.12714       -1.54126
H          2.87984        2.37974       -0.31083
N          1.39756        3.20720       -1.49811
C         -3.32781        0.86872        1.31743
H         -2.54649        2.44825       -0.77172
O          2.82590       -0.30314        0.24582
C          3.10245       -0.97673        1.33272
O          2.26124       -1.46877        2.06266
C          4.58547       -1.09116        1.58882
H          4.75768       -1.45733        2.60785
H          5.01626       -1.80302        0.86866
H          5.08553       -0.12539        1.43318
H          1.30614        0.79775        2.01905
Pd         0.94223       -0.39560       -0.32435
O          0.83237       -2.12114       -1.54190
C         -0.37931       -1.85329       -1.76854
O         -0.85019       -0.79031       -1.24280
C         -1.24930       -2.75064       -2.57585
H         -0.64202       -3.36524       -3.25134
H         -1.79453       -3.41549       -1.88784
H         -1.98625       -2.16022       -3.13542
H         -4.00663        1.69588        1.05466
H         -3.40200        0.73267        2.40961
C         -3.82365       -0.41367        0.62148
H         -3.62701       -0.29332       -0.45892
C         -3.07170       -1.65150        1.09347
H         -3.43668       -2.54925        0.57040
H         -1.99279       -1.57183        0.90211
H         -3.22069       -1.81648        2.17384
C         -5.32542       -0.56974        0.82822
H         -5.88213        0.29782        0.44075
H         -5.70463       -1.46837        0.31790
H         -5.56694       -0.67080        1.89946
