33
Benzo13dioxol_H9_Int1_Sub22.log	Energy: -655371.3051988
C         -0.08175       -1.48831       -0.88517
C          0.99808       -1.11242       -1.72986
C          0.09745       -1.61899        0.51913
C          2.18768       -0.85661       -1.10601
H          0.87251       -1.01463       -2.80735
C          1.36857       -1.39565        1.14379
H         -0.69318       -2.09227        1.10664
C          2.36204       -0.99177        0.29224
O          3.35464       -0.46063       -1.65046
C          1.56691       -1.53834        2.61782
O          3.64109       -0.67538        0.60108
C          4.23460       -0.17599       -0.57978
H          5.20029       -0.67593       -0.75173
H          4.37005        0.91810       -0.49505
O         -2.57644       -0.52001        0.58105
C         -3.35680       -0.84982       -0.41213
O         -3.03724       -0.83796       -1.58765
C         -4.73885       -1.25101        0.05196
H         -4.67685       -1.95457        0.89366
H         -5.26820       -0.35641        0.41288
H         -5.29575       -1.69378       -0.78230
H         -1.02215       -1.80044       -1.34569
Pd        -0.85080        0.33791        0.16880
O         -1.21501        2.43685        0.36946
C          0.00788        2.63824        0.14608
O          0.75389        1.62088       -0.04215
C          0.57281        4.01600        0.06490
H         -0.03868        4.71248        0.65161
H          1.61496        4.02173        0.40901
H          0.55666        4.33964       -0.98738
H          1.14594       -0.67108        3.15228
H          2.63334       -1.60287        2.87078
H          1.05869       -2.43601        2.99964
