39
Benzo13dioxol_H8_deriv1_Int1_Sub13.log	Energy: -992985.7273818
C          0.25490       -0.51729        1.76952
C         -0.98425        0.06965        1.92561
C          0.40621       -1.37546        0.63944
C         -2.02174       -0.16436        1.02857
O         -1.39776        0.95404        2.86942
C         -0.69540       -1.63329       -0.22628
H          1.26671       -2.04384        0.59994
C         -1.94317       -1.02017       -0.07738
O         -3.08889        0.57700        1.38859
C         -2.63944        1.44664        2.42091
Cl        -0.42070       -2.76264       -1.50784
C         -3.09451       -1.18179       -1.03866
H         -3.36724        1.44222        3.24573
H         -2.51912        2.46453        2.00442
O          2.97610       -0.47590       -0.42988
C          3.64375       -0.80089        0.64076
O          3.22113       -0.73551        1.78246
C          5.04284       -1.27544        0.32009
H          5.02144       -2.02213       -0.48568
H          5.63709       -0.42314       -0.04176
H          5.50812       -1.69186        1.22130
H          1.09312       -0.39284        2.45634
Pd         1.23536        0.41913       -0.30169
O          1.57074        2.24334       -1.36476
C          0.36009        2.53558       -1.18853
O         -0.36473        1.69824       -0.55278
C         -0.21587        3.82323       -1.67084
H         -1.29831        3.72517       -1.82154
H         -0.03574        4.59716       -0.90862
H          0.28306        4.13617       -2.59677
H         -2.77544       -1.92835       -1.78020
C         -4.34622       -1.71827       -0.34519
H         -5.14741       -1.87858       -1.08269
H         -4.14416       -2.68001        0.14968
H         -4.71942       -1.01369        0.41238
C         -3.35648        0.13064       -1.78068
H         -2.44395        0.48794       -2.27934
H         -4.13825       -0.01284       -2.54226
H         -3.69210        0.91671       -1.08828
