45
Benzooxazole_H10_Int1_Sub27.log	Energy: -764663.9212450
C         -1.62414       -1.65419        0.65398
C         -1.55261       -1.74380       -0.77001
C         -0.45843       -1.45533        1.43159
C         -0.31589       -1.64254       -1.45242
H         -2.44565       -2.04790       -1.31968
C          0.71103       -1.32008        0.72699
H         -0.50323       -1.39487        2.51886
C          0.80910       -1.40790       -0.68648
H         -0.25480       -1.73686       -2.53697
O          1.95830       -1.07682        1.19311
N          2.13313       -1.21138       -1.03943
C          2.74876       -1.02075        0.07719
C          4.18275       -0.71357        0.30333
O         -4.02821       -0.23552       -0.60526
C         -4.78988       -0.50687        0.42022
O         -4.40181       -0.60256        1.57108
C         -6.23890       -0.68553        0.02964
H         -6.32687       -1.33539       -0.85189
H         -6.80134       -1.10026        0.87453
H         -6.65802        0.29443       -0.24396
H         -2.56961       -1.84936        1.16571
Pd        -2.18187        0.34551       -0.24995
O         -2.26661        2.47039       -0.31852
C         -1.01607        2.49418       -0.15837
O         -0.41504        1.37586       -0.04531
C         -0.25265        3.77352       -0.13449
H          0.68432        3.64751        0.42231
H         -0.00938        4.05674       -1.17024
H         -0.86644        4.57116        0.30283
H          4.55185       -1.45089        1.04192
C          4.34282        0.68214        0.93106
H          3.77303        0.73544        1.87130
H          3.89621        1.42414        0.24547
C          5.81175        1.01266        1.16422
H          5.90345        2.02907        1.57921
H          6.21930        0.32757        1.92949
C          6.62786        0.88028       -0.11678
H          7.69098        1.08921        0.08304
H          6.29132        1.64396       -0.84109
C          6.46452       -0.50337       -0.73689
H          6.90691       -1.25853       -0.06195
H          7.02503       -0.57011       -1.68269
C          4.99886       -0.84236       -0.98033
H          4.57110       -0.16165       -1.73551
H          4.88942       -1.85701       -1.39233
