35
Benzoisoxazole_H8_deriv1_Int1_Sub17.log	Energy: -853519.6888623
C         -0.48441       -1.20958        1.23289
C         -0.04642       -1.54488       -0.07426
C          0.43652       -0.55040        2.06368
C          1.28579       -1.25086       -0.46654
C         -0.52833       -2.33647       -1.18245
C          1.72417       -0.20228        1.64581
H          0.12455       -0.29076        3.07663
C          2.17432       -0.56774        0.35131
O          1.50148       -1.77081       -1.68224
H         -1.51638       -2.77194       -1.31981
N          0.37197       -2.44372       -2.10362
C          2.60294        0.57289        2.58140
C          3.57032       -0.22405       -0.10727
O         -2.89111       -0.68114       -0.40871
C         -3.70139       -0.70581        0.61812
O         -3.41348       -0.28762        1.72520
C         -5.04608       -1.30508        0.28694
H         -5.60119       -1.50203        1.21165
H         -5.60983       -0.59125       -0.33231
H         -4.93075       -2.22624       -0.30065
H         -1.43928       -1.54591        1.63880
Pd        -1.25357        0.39121       -0.17181
O         -1.77637        2.30887       -0.86466
C         -0.58325        2.67782       -0.67379
O          0.22524        1.80694       -0.21109
C         -0.12379        4.05336       -1.00232
H         -0.93902        4.77111       -0.84620
H          0.75466        4.31507       -0.39954
H          0.16085        4.08219       -2.06557
H          3.60527        0.13145        2.66188
H          2.15660        0.61784        3.58263
H          2.72958        1.60161        2.21241
F          3.78561       -0.57497       -1.36757
F          4.49235       -0.84023        0.64511
F          3.80171        1.08942       -0.01094
