38
Benzoisoxazole_H10_Int1_Sub29.log	Energy: -691436.2368742
C          0.60320       -1.52096        0.97855
C         -0.36263       -1.11043        1.94556
C          0.26585       -1.63088       -0.39650
C         -1.64984       -0.79353        1.57931
H         -0.05272       -1.04761        2.98969
C         -1.07919       -1.32845       -0.72079
H          0.92875       -2.11726       -1.11425
C         -2.01071       -0.89653        0.21487
H         -2.37442       -0.46742        2.32682
O         -1.63054       -1.36424       -1.93324
C         -3.18027       -0.65733       -0.58793
N         -2.93680       -0.94100       -1.83927
C         -4.52043       -0.12750       -0.17993
O          2.92774       -0.61995       -0.72759
C          3.80528       -0.92580        0.19155
O          3.60750       -0.85057        1.39105
C          5.11949       -1.38304       -0.39598
H          5.74656       -1.81504        0.39281
H          4.95319       -2.11013       -1.20262
H          5.63257       -0.51598       -0.83840
H          1.57828       -1.86617        1.33017
Pd         1.29231        0.30226       -0.13620
O          1.73070        2.35843       -0.38100
C          0.54474        2.62533       -0.03867
O         -0.21825        1.64584        0.24654
C          0.05247        4.02892        0.03216
H          0.18154        4.50791       -0.94902
H         -1.00237        4.05321        0.33004
H          0.66299        4.58981        0.75457
H         -5.11824       -0.09862       -1.10499
C         -5.21209       -1.05999        0.81327
H         -6.21923       -0.68576        1.05121
H         -5.31365       -2.07555        0.40355
H         -4.65362       -1.13240        1.75961
C         -4.39158        1.29832        0.35719
H         -3.91253        1.95788       -0.38096
H         -5.38431        1.70952        0.59505
H         -3.78425        1.33157        1.27501
