35
Benzofuran_H13_deriv1_Int1_Sub31.log	Energy: -955125.3783145
C          0.25684       -1.31276        0.44122
C         -1.15807       -1.10360        0.58439
C          0.49389       -1.23772       -0.95331
C         -1.66702       -0.93162       -0.71577
C         -2.04113       -1.00632        1.66522
Cl         1.71033       -1.99914       -1.88332
O         -0.67343       -1.04170       -1.63968
C         -2.98957       -0.67210       -0.99795
C         -3.38103       -0.76261        1.41940
H         -1.67897       -1.11949        2.68887
C         -3.87656       -0.59107        0.09633
H         -3.33099       -0.53338       -2.02468
H         -4.07066       -0.69425        2.26052
N         -5.19850       -0.35104       -0.12722
O          3.00634       -0.08796        0.16790
C          3.39157       -0.72734        1.23307
O          2.66646       -1.12666        2.13019
C          4.88703       -0.95443        1.24572
H          5.17675       -1.54233        0.36255
H          5.41109        0.00968        1.18014
H          5.17517       -1.48296        2.16190
H          0.97044       -1.65925        1.19603
Pd         1.17364        0.59851       -0.09325
O          1.41850        2.73229        0.05685
C          0.19781        2.84922       -0.23179
O         -0.47408        1.78650       -0.44079
C         -0.45016        4.18653       -0.35957
H         -1.53538        4.10059       -0.22501
H         -0.01650        4.88508        0.36745
H         -0.24914        4.57855       -1.36853
H         -5.48453       -0.21042       -1.08422
C         -6.19061       -0.22699        0.89954
H         -7.16631       -0.03844        0.43368
H         -5.98088        0.61018        1.58969
H         -6.28196       -1.14709        1.50359
