41
Benzoisoxazole_H9_Int1_Sub20.log	Energy: -716084.6142823
C          0.33157       -1.52556       -0.55993
C          0.35920       -1.57788        0.85406
C         -0.84495       -1.10819       -1.25822
C         -0.84467       -1.22526        1.52050
H          1.18742       -2.05550        1.38089
C         -2.00886       -0.71926       -0.62638
H         -0.78965       -1.09032       -2.34611
C         -1.95263       -0.80358        0.79290
C         -1.29454       -1.13887        2.87146
C         -3.24689       -0.21302       -1.35015
O         -2.94129       -0.50065        1.64453
H         -0.76071       -1.36961        3.79303
N         -2.52397       -0.71445        2.93415
O          3.04675       -0.67115        0.36569
C          3.63230       -1.03117       -0.74622
O          3.11970       -0.97358       -1.84946
C          5.04127       -1.52780       -0.52203
H          5.07619       -2.23300        0.31972
H          5.41752       -1.99851       -1.43794
H          5.68281       -0.67330       -0.25928
H          1.15733       -1.93168       -1.14802
Pd         1.33909        0.29606        0.20164
O          1.86907        2.35512        0.25445
C          0.64169        2.64228        0.21452
O         -0.18816        1.67414        0.18198
C          0.16360        4.05195        0.16993
H          0.89699        4.71682        0.64250
H          0.05178        4.35048       -0.88401
H         -0.81638        4.13544        0.65693
C         -3.04507       -0.21067       -2.86456
H         -3.95722        0.16248       -3.35324
H         -2.21455        0.44594       -3.16537
H         -2.84968       -1.22090       -3.25582
C         -4.44200       -1.11748       -1.01043
H         -4.65105       -1.12896        0.06789
H         -5.34321       -0.75213       -1.52676
H         -4.25781       -2.15180       -1.33944
C         -3.52567        1.22707       -0.88741
H         -4.39611        1.62898       -1.42897
H         -3.74240        1.27130        0.18857
H         -2.65615        1.87071       -1.08478
