35
Benzo13dioxol_H8_deriv1_Int1_Sub23.log	Energy: -978401.7207076
C          0.40632       -1.06872       -0.95640
C          1.65582       -0.56536       -0.66886
C         -0.39295       -1.49430        0.15221
C          2.13620       -0.49111        0.64010
O          2.58511       -0.05716       -1.51127
C          0.14458       -1.45489        1.46999
H         -1.26880       -2.11478       -0.03960
C          1.40888       -0.94405        1.73736
O          3.34487        0.06648        0.64218
C          3.63378        0.49957       -0.73597
Cl        -0.80562       -2.07963        2.76551
H          1.80200       -0.88038        2.75090
N          4.87042        0.09606       -1.20457
H          3.56772        1.60150       -0.73217
O         -3.00753       -0.32628       -0.40609
C         -3.16004       -0.97596       -1.52470
O         -2.26266       -1.27018       -2.29641
C         -4.60493       -1.33502       -1.78730
H         -5.05992       -1.78310       -0.89317
H         -5.16721       -0.41665       -2.01317
H         -4.66708       -2.02239       -2.63924
H          0.00138       -1.17360       -1.96401
Pd        -1.28057        0.49700        0.03466
O         -1.75978        2.57569        0.14800
C         -0.56830        2.80071        0.48373
O          0.21726        1.80006        0.58808
C         -0.06755        4.18491        0.72083
H          0.76238        4.17243        1.43866
H          0.30243        4.59334       -0.23245
H         -0.88390        4.82651        1.07525
H          5.61834        0.72018       -0.92803
C          5.19548       -1.31181       -1.16284
H          6.12679       -1.48673       -1.71808
H          4.40099       -1.87966       -1.66735
H          5.31197       -1.71044       -0.13873
