48
Benzoisoxazole_H8_deriv1_Int1_Sub19.log	Energy: -789280.6726151
C         -1.11988       -1.38678        1.06342
C         -0.43420       -1.58313       -0.16526
C         -0.36367       -0.84600        2.12024
C          0.93012       -1.24385       -0.26023
C         -0.70331       -2.17741       -1.44981
C          0.97783       -0.46941        1.98643
H         -0.85909       -0.70332        3.08254
C          1.67372       -0.66912        0.76626
O          1.37148       -1.57093       -1.49223
H         -1.64345       -2.57558       -1.82773
N          0.34961       -2.15365       -2.20517
C          1.66585        0.17205        3.15612
C          3.10184       -0.24819        0.55547
O         -3.25285       -0.57777       -0.74488
C         -4.21121       -0.73040        0.13088
O         -4.10944       -0.45957        1.31381
C         -5.47803       -1.27859       -0.48178
H         -6.17343       -1.57790        0.31129
H         -5.94297       -0.49581       -1.09973
H         -5.25615       -2.12721       -1.14357
H         -2.11735       -1.78240        1.25550
Pd        -1.67203        0.42156       -0.12416
O         -2.00141        2.40259       -0.79893
C         -0.86115        2.71563       -0.36129
O         -0.17916        1.79942        0.20610
C         -0.30437        4.08747       -0.52241
H         -1.11127        4.80859       -0.69987
H          0.28003        4.36311        0.36521
H          0.37339        4.09164       -1.39010
H          2.57643       -0.37300        3.44839
H          0.99956        0.20977        4.02777
H          1.96305        1.20522        2.91685
H          3.47074        0.17835        1.50107
C          3.20411        0.86193       -0.50370
H          2.54572        1.69721       -0.21841
H          2.82156        0.47587       -1.46343
C          4.64597        1.32296       -0.67644
H          4.70184        2.09586       -1.46002
H          4.99067        1.80372        0.25751
C          5.56959        0.15679       -1.01196
H          6.61161        0.50425       -1.09978
H          5.29198       -0.25045       -2.00073
C          5.46599       -0.95154        0.03037
H          5.84839       -0.57769        0.99790
H          6.10840       -1.80259       -0.24730
C          4.02703       -1.42343        0.20611
H          3.67599       -1.89641       -0.72558
H          3.96440       -2.19133        0.99434
