33
Benzothiophene_H13_Int1_Sub9.log	Energy: -1021469.1556730
C          0.10599        0.70074       -1.05758
C          1.46809        0.28693       -0.78954
C         -0.52579       -0.17625       -1.95666
C          1.82942       -0.86534       -1.51768
C          2.40262        0.84870        0.09865
H         -1.43873        0.03992       -2.51404
S          0.53070       -1.43850       -2.53321
C          3.09007       -1.45165       -1.38591
C          3.65925        0.27669        0.22184
C          2.01162        2.03904        0.93453
C          4.00008       -0.86356       -0.52038
H          3.35223       -2.34861       -1.95002
H          4.38144        0.71753        0.90970
H          4.99540       -1.29831       -0.40743
O         -2.89928        0.37662       -0.49103
C         -3.01584        1.66976       -0.34097
O         -2.10749        2.43759       -0.08219
C         -4.44372        2.13396       -0.51648
H         -4.89828        1.66884       -1.40181
H         -5.03046        1.81449        0.35791
H         -4.47010        3.22720       -0.59442
H         -0.32677        1.66827       -0.77465
Pd        -1.26487       -0.58866        0.03617
O         -1.85913       -1.66367        1.77740
C         -0.71468       -2.19415        1.79721
O          0.10615       -1.86286        0.87937
C         -0.33266       -3.19513        2.83169
H         -0.71334       -4.18130        2.52410
H          0.75875       -3.25098        2.92509
H         -0.79758       -2.93702        3.79184
F          3.02381        2.46769        1.69062
F          0.99861        1.73815        1.75234
F          1.61665        3.06241        0.17264
