34
Benzoisoxazole_H9_Int1_Sub23.log	Energy: -676849.2316774
C         -0.03064       -1.41247        0.90523
C         -0.04067       -1.57864       -0.50808
C          1.11657       -0.98136        1.61149
C          1.20816       -1.34546       -1.16909
H         -0.84292       -2.13444       -0.99659
C          2.31620       -0.69297        0.95825
H          1.04024       -0.85371        2.69090
C          2.30032       -0.90602       -0.45104
C          1.72331       -1.39424       -2.50028
N          3.44447       -0.25354        1.55193
O          3.34408       -0.70958       -1.26290
H          1.22097       -1.68467       -3.42263
N          2.97287       -1.02131       -2.54669
O         -2.72106       -0.56859       -0.49646
C         -3.39690       -0.97901        0.54052
O         -2.97615       -1.02599        1.68373
C         -4.80548       -1.39513        0.17926
H         -4.80382       -2.04070       -0.70982
H         -5.27066       -1.90792        1.02946
H         -5.38949       -0.49679       -0.07138
H         -0.91857       -1.69187        1.47976
Pd        -0.98789        0.33653       -0.22712
O         -1.42643        2.43583       -0.33601
C         -0.19122        2.66017       -0.24576
O          0.59134        1.65820       -0.13861
C          0.35966        4.04540       -0.29649
H         -0.37324        4.75915        0.09993
H          1.30439        4.10131        0.25883
H          0.56089        4.30485       -1.34742
H          4.22843       -0.04452        0.94978
C          3.53509        0.04885        2.95140
H          4.54191        0.42164        3.17609
H          3.35706       -0.84492        3.57365
H          2.80563        0.82237        3.24952
