39
Benzofuran_H13_deriv1_Int1_Sub21.log	Energy: -969712.3162360
C         -0.19318       -1.28161        0.24282
C          1.19334       -0.88698        0.40000
C         -0.80184       -0.91753        1.46436
C          1.29319       -0.32327        1.67869
C          2.31534       -0.93437       -0.42784
Cl        -2.20720       -1.52845        2.20678
O          0.08844       -0.36477        2.32397
C          2.46910        0.20815        2.17618
C          3.52587       -0.42222        0.04408
H          2.23313       -1.36096       -1.42991
C          3.57836        0.13736        1.33594
H          2.51941        0.65424        3.16976
C          4.76726       -0.44873       -0.82469
H          4.53221        0.53689        1.69081
O         -2.89482       -0.52993       -0.65783
C         -2.82993       -1.36213       -1.65851
O         -1.80563       -1.71000       -2.22242
C         -4.19341       -1.87869       -2.05694
H         -4.70077       -2.31209       -1.18332
H         -4.81303       -1.04151       -2.40991
H         -4.08905       -2.62845       -2.84979
H         -0.60329       -1.94387       -0.52270
Pd        -1.32107        0.52108       -0.10550
O         -1.75768        2.48566       -0.81528
C         -0.69229        2.88104       -0.26742
O          0.00976        2.01893        0.35584
C         -0.27222        4.30959       -0.31397
H          0.80629        4.39711       -0.13457
H         -0.54918        4.75090       -1.27998
H         -0.80826        4.85828        0.47578
H          5.58327       -0.01009       -0.22537
C          5.17591       -1.87594       -1.18631
H          6.11428       -1.87898       -1.76232
H          5.32414       -2.49040       -0.28579
H          4.40730       -2.36736       -1.80394
C          4.59310        0.41748       -2.07199
H          4.32496        1.45084       -1.80611
H          5.52199        0.44380       -2.66271
H          3.79629        0.02337       -2.72275
