30
Benzofuran_H13_deriv1_Int1_Sub18.log	Energy: -1184081.5789353
C         -0.08042       -1.32085       -0.02732
C          1.34043       -1.03334        0.01396
C         -0.52308       -1.07739        1.29129
C          1.61971       -0.64011        1.32937
C          2.35822       -1.04975       -0.94192
Cl        -1.87904       -1.68901        2.11719
O          0.49492       -0.68927        2.09988
C          2.87818       -0.24433        1.75159
C          3.62938       -0.67166       -0.52349
H          2.16888       -1.34031       -1.97564
C          3.89133       -0.27440        0.79904
H          3.06315        0.07089        2.77871
Cl         4.93438       -0.68025       -1.66164
H          4.90806        0.01464        1.06908
O         -2.82152       -0.26766       -0.48502
C         -2.96622       -1.05266       -1.51516
O         -2.06052       -1.49922       -2.19968
C         -4.41858       -1.37524       -1.78080
H         -4.88030       -1.79506       -0.87578
H         -4.96142       -0.45012       -2.02303
H         -4.49444       -2.08484       -2.61281
H         -0.62793       -1.84850       -0.81454
Pd        -1.10239        0.57808       -0.02694
O         -1.44955        2.63772       -0.45194
C         -0.29587        2.88755       -0.00691
O          0.39762        1.90617        0.42117
C          0.23887        4.27594        0.04989
H          1.33475        4.26234        0.09322
H         -0.11497        4.84971       -0.81625
H         -0.14589        4.76258        0.95944
