33
Benzofuran_H13_Int1_Sub6.log	Energy: -632102.5137401
C         -0.18028       -1.49996        0.04695
C         -1.54155       -1.29110        0.50143
C         -0.19658       -1.21764       -1.33785
C         -2.25646       -0.87417       -0.62921
C         -2.19040       -1.38651        1.73506
C          0.71757       -1.61761       -2.43574
O         -1.44880       -0.84571       -1.72590
C         -3.60027       -0.53659       -0.59747
C         -3.54324       -1.06763        1.78634
H         -1.64422       -1.69614        2.62807
C         -4.23464       -0.64904        0.63787
H         -4.12336       -0.20299       -1.49423
H         -4.07871       -1.13687        2.73550
H         -5.29588       -0.40153        0.71470
O          2.49432       -0.44273       -0.26969
C          2.95409       -0.94227        0.84713
O          2.30197       -1.06769        1.86810
C          4.40364       -1.35664        0.74494
H          4.56697       -1.97711       -0.14745
H          5.02761       -0.45734        0.63398
H          4.69921       -1.90000        1.65007
H          0.59322       -2.04481        0.58692
Pd         0.72272        0.43725       -0.17972
O          1.14565        2.50947        0.13268
C         -0.09454        2.73043        0.07185
O         -0.86566        1.73736       -0.13661
C         -0.65185        4.10588        0.20911
H         -1.71301        4.06335        0.48304
H         -0.07541        4.67064        0.95318
H         -0.55451        4.62300       -0.75789
H          0.70648       -0.86494       -3.23631
H          0.37517       -2.57492       -2.86156
H          1.73859       -1.72235       -2.05202
