39
Benzo13dioxol_H8_Int1_Sub5.log	Energy: -704664.9694305
C         -0.05765       -1.22474        0.78717
C         -1.39567       -1.04069        1.17227
C          0.18322       -1.66683       -0.56002
C         -2.44185       -1.20497        0.28370
O         -1.87742       -0.69350        2.38241
C         -0.91630       -1.83995       -1.43069
C          1.55614       -2.18950       -0.93651
C         -2.22969       -1.61879       -1.02486
O         -3.61308       -0.94526        0.91763
C         -3.25158       -0.40459        2.17612
H         -0.73016       -2.17982       -2.45044
H         -3.06909       -1.75419       -1.70795
H         -3.84972       -0.87356        2.97116
H         -3.39753        0.69259        2.16803
O          2.26431        0.46385        0.36340
C          2.46191        0.85573        1.59562
O          1.56999        1.17294        2.36055
C          3.92307        0.87586        1.97645
H          4.40173       -0.07970        1.71923
H          4.43606        1.66198        1.40269
H          4.02318        1.07828        3.04931
H          0.72551       -1.25904        1.54615
Pd         0.39940        0.68026       -0.23847
O          0.33846        2.66097       -0.98902
C         -0.87569        2.48535       -1.28184
O         -1.38071        1.34124       -1.03839
C         -1.70753        3.57938       -1.85769
H         -2.52938        3.16139       -2.45239
H         -2.13788        4.16499       -1.03057
H         -1.08395        4.24929       -2.46299
H          2.26243       -1.75564       -0.21340
C          1.57800       -3.71176       -0.78321
H          2.58988       -4.10326       -0.97074
H          1.27759       -4.01866        0.23015
H          0.89067       -4.19388       -1.49675
C          2.00751       -1.75359       -2.32509
H          2.00544       -0.65707       -2.41461
H          3.03150       -2.10674       -2.51859
H          1.36539       -2.16609       -3.11962
