44
Benzoisoxazole_H8_deriv1_Int1_Sub28.log	Energy: -740729.8887439
C          0.59868        1.08615        1.30571
C          0.82032        1.83424        0.11482
C         -0.73623        0.82634        1.66306
C         -0.29559        2.30421       -0.61819
C          1.92293        2.47590       -0.56206
C         -1.82441        1.26544        0.89625
H         -0.92349        0.27618        2.58695
C         -1.60193        2.03437       -0.26233
O          0.13461        3.07466       -1.62884
H          2.98709        2.39440       -0.34662
N          1.50889        3.17330       -1.57218
C         -3.22759        0.94294        1.32613
H         -2.43342        2.42599       -0.84969
O          2.99801       -0.22921        0.32139
C          3.26303       -0.87504        1.42835
O          2.41571       -1.38313        2.13969
C          4.74004       -0.93364        1.73250
H          4.89213       -1.27903        2.76193
H          5.21840       -1.63976        1.03716
H          5.21062        0.04706        1.57822
H          1.40006        0.85257        2.00651
Pd         1.13771       -0.39841       -0.30433
O          1.11840       -2.16337       -1.47558
C         -0.09115       -1.93620       -1.74797
O         -0.60670       -0.87146       -1.26671
C         -0.91332       -2.87509       -2.55777
H         -0.26854       -3.53321       -3.15237
H         -1.51546       -3.49031       -1.87116
H         -1.60341       -2.31370       -3.20123
H         -3.88956        1.77753        1.04246
H         -3.25396        0.88054        2.42612
C         -3.83820       -0.36533        0.75976
C         -3.93507       -0.29933       -0.76514
H         -4.43341       -1.20233       -1.15277
H         -4.52899        0.57034       -1.09110
H         -2.93906       -0.24264       -1.22713
C         -2.99437       -1.57403        1.16743
H         -2.89870       -1.64785        2.26273
H         -3.46685       -2.50427        0.81375
H         -1.98508       -1.52439        0.73424
C         -5.24169       -0.50065        1.35404
H         -5.73362       -1.41470        0.98647
H         -5.20746       -0.55673        2.45382
H         -5.87716        0.35633        1.07881
