45
Benzooxazole_H10_Int1_Sub3.log	Energy: -764658.2119819
C         -0.02353       -0.39557        1.46594
C         -0.55295       -1.11191        0.34116
C          1.26844       -0.65870        1.99440
C          0.23929       -2.09578       -0.28831
C         -2.01077       -0.95220       -0.01824
C          1.99246       -1.61797        1.33457
H          1.64122       -0.11150        2.86017
C          1.50638       -2.33534        0.21570
H         -0.13023       -2.66323       -1.14276
O          3.25707       -2.05709        1.57134
N          2.49839       -3.20955       -0.20034
C          3.46614       -2.99405        0.61753
H          4.44036       -3.48278        0.63665
O         -1.15780        2.00697        0.26002
C         -1.11886        2.71402        1.35788
O         -0.22007        2.65851        2.17851
C         -2.31952        3.61738        1.51193
H         -3.24948        3.04780        1.37312
H         -2.30363        4.09035        2.50087
H         -2.29323        4.39142        0.73069
H         -0.69420        0.22944        2.05759
Pd         0.48934        1.00845       -0.15679
O          1.49642        2.24718       -1.56250
C          2.39858        1.37052       -1.64364
O          2.25636        0.31460       -0.94350
C          3.60713        1.56089       -2.49350
H          3.96466        0.59222       -2.86552
H          3.38434        2.24352       -3.32279
H          4.40228        2.00859       -1.87742
H         -2.36197       -0.03347        0.47834
C         -2.83116       -2.12855        0.53000
H         -2.66074       -2.22914        1.61438
H         -2.46999       -3.06620        0.06991
C         -4.31613       -1.95054        0.23402
H         -4.88180       -2.81895        0.60852
H         -4.69039       -1.07218        0.79011
C         -4.57052       -1.74688       -1.25544
H         -5.64355       -1.57859       -1.44124
H         -4.30306       -2.67210       -1.79792
C         -3.74629       -0.58801       -1.80565
H         -4.08595        0.35659       -1.34467
H         -3.90904       -0.47920       -2.88981
C         -2.26101       -0.76855       -1.51615
H         -1.88716       -1.64903       -2.06914
H         -1.68872        0.10060       -1.87845
