33
Benzo13dioxol_H8_deriv1_Int1_Sub17.log	Energy: -1130428.3979639
C          0.11432       -1.06822       -0.68329
C          1.31429       -0.43844       -0.41310
C         -0.68455       -1.43138        0.44488
C          1.72101       -0.16340        0.88403
O          2.22306        0.08476       -1.28457
C         -0.21861       -1.17310        1.76466
H         -1.50772       -2.13321        0.30584
C          0.98398       -0.51976        2.00676
O          2.88610        0.51826        0.85513
C          3.28407        0.56394       -0.50089
Cl        -1.17553       -1.70577        3.09296
H          1.32509       -0.29210        3.01555
C          4.51307       -0.33324       -0.69073
H          3.54324        1.59692       -0.78575
O         -3.28993       -0.55806       -0.55543
C         -3.30024       -1.35887       -1.58390
O         -2.32045       -1.68465       -2.23211
C         -4.69033       -1.85224       -1.91153
H         -5.20389       -2.19460       -1.00271
H         -5.27767       -1.01787       -2.32326
H         -4.63148       -2.65905       -2.65153
H         -0.22978       -1.34430       -1.68219
Pd        -1.68163        0.45494       -0.07146
O         -2.35066        2.46703       -0.23130
C         -1.22357        2.84524        0.18430
O         -0.36680        1.94103        0.46484
C         -0.87756        4.28786        0.31599
H         -0.11949        4.42845        1.09679
H         -0.46095        4.63808       -0.64119
H         -1.77928        4.87410        0.53261
F          4.23751       -1.58548       -0.34365
F          5.51483        0.10810        0.06151
F          4.89377       -0.31407       -1.96152
