33
Benzothiophene_H9_Int1_Sub6.log	Energy: -834721.7732852
C          0.29082       -1.32140        0.66778
C          1.52887       -1.19196       -0.01961
C          0.13718       -0.67270        1.92513
C          2.58533       -0.41962        0.49239
S          1.93196       -1.89796       -1.54096
C          1.22369        0.11327        2.42509
C         -0.99117       -1.02991        2.84852
C          2.40584        0.23330        1.73904
C          3.71901       -0.42745       -0.37987
C          3.50394       -1.18295       -1.49518
H          1.09829        0.61117        3.38899
H          3.21854        0.83812        2.14785
H          4.64729        0.10859       -0.17987
H          4.19554       -1.36182       -2.31802
O         -2.45111       -0.51170        0.22814
C         -2.64295       -1.30808       -0.79005
O         -1.79498       -1.57505       -1.62319
C         -4.04274       -1.87407       -0.83375
H         -4.33157       -2.27144        0.14938
H         -4.74864       -1.06642       -1.07865
H         -4.10235       -2.65738       -1.59856
H         -0.42342       -2.07909        0.34298
Pd        -0.76912        0.52391        0.16740
O         -1.33675        2.32421       -0.79629
C         -0.15289        2.74132       -0.65978
O          0.67715        1.97711       -0.07148
C          0.25776        4.09048       -1.14192
H         -0.24215        4.31565       -2.09298
H         -0.06410        4.84225       -0.40494
H          1.34793        4.14249       -1.25030
H         -1.87681       -1.35552        2.28955
H         -1.27192       -0.17262        3.47698
H         -0.66915       -1.84456        3.51833
