33
Benzo13dioxol_H9_Int1_Sub14.log	Energy: -655369.7983101
C          0.12248       -1.61009        0.45851
C         -0.88684       -1.33498        1.43506
C         -0.17247       -1.65366       -0.93788
C         -2.12975       -1.03773        0.96085
H         -0.64606       -1.32694        2.49754
C         -1.49789       -1.36307       -1.37811
C          0.79867       -2.25656       -1.91109
C         -2.42597       -1.04904       -0.42412
O         -3.24767       -0.69469        1.63810
H         -1.75474       -1.37808       -2.43750
O         -3.71749       -0.71205       -0.59212
C         -4.19233       -0.28473        0.67248
H         -5.16527       -0.75488        0.87914
H         -4.27681        0.81786        0.67688
O          2.57433       -0.29678       -0.40275
C          3.21713       -0.42630        0.72794
O          2.70215       -0.32484        1.82677
C          4.68673       -0.71856        0.53313
H          4.82530       -1.54977       -0.17266
H          5.17552        0.16447        0.09529
H          5.14907       -0.95432        1.49889
H          1.07216       -2.01405        0.81274
Pd         0.72573        0.37193       -0.22297
O          0.91148        2.49406       -0.38685
C         -0.33788        2.58898       -0.26295
O         -1.00738        1.51012       -0.14760
C         -1.02109        3.91392       -0.21395
H         -0.42378        4.66919       -0.73935
H         -2.02752        3.83982       -0.64551
H         -1.11935        4.21878        0.83948
H          0.69173       -1.80405       -2.90718
H          0.59450       -3.33574       -2.00874
H          1.83361       -2.11666       -1.57595
