33
Benzofuran_H9_Int1_Sub14.log	Energy: -632092.5427778
C          0.32274       -1.47354       -0.49498
C          1.62674       -1.15055       -0.89934
C          0.10150       -1.50005        0.90827
C          2.65961       -0.85997       -0.00562
O          2.06290       -1.05775       -2.17279
C          1.15305       -1.22414        1.85123
H         -0.82766       -1.93753        1.28185
C          2.40998       -0.89975        1.38792
C          3.79901       -0.57252       -0.82613
C          3.36727       -0.71070       -2.11079
C          0.83967       -1.30314        3.31469
H          3.21319       -0.67562        2.09377
H          4.80122       -0.29769       -0.50632
H          3.87030       -0.59882       -3.06832
O         -2.49535       -0.41574        0.32094
C         -3.01955       -0.98501       -0.73028
O         -2.42956       -1.22751       -1.76823
C         -4.48157       -1.31580       -0.53180
H         -4.63980       -1.80938        0.43699
H         -5.06077       -0.38031       -0.51968
H         -4.83171       -1.95270       -1.35268
H         -0.44094       -1.80201       -1.20710
Pd        -0.71369        0.41711        0.19786
O         -1.14168        2.49054        0.00821
C          0.09956        2.71626        0.03632
O          0.87885        1.71753        0.17066
C          0.64750        4.09341       -0.11707
H          1.63199        4.16825        0.36131
H          0.76451        4.30547       -1.19113
H         -0.05228        4.82727        0.30225
H          0.49287       -2.31166        3.59171
H          0.03505       -0.60089        3.58351
H          1.71944       -1.06515        3.92763
