34
Benzofuran_H9_Int1_Sub24.log	Energy: -679259.8297155
C          0.19163       -1.30508        0.69290
C          1.51025       -0.87358        0.56737
C         -0.51894       -0.80204        1.82168
C          2.14899        0.00319        1.45380
O          2.36049       -1.20409       -0.44510
C          0.12665        0.06908        2.75476
H         -1.47240       -1.25896        2.09405
C          1.42777        0.47827        2.57743
C          3.46510        0.20350        0.93813
C          3.51492       -0.55215       -0.20486
H         -0.43928        0.40826        3.62462
H          1.90080        1.15929        3.28747
H          4.26846        0.81849        1.33157
O          4.50246       -0.72322       -1.05451
O         -2.84719       -0.69364        0.13073
C         -2.90295       -1.74078       -0.64377
O         -1.96033       -2.22383       -1.24812
C         -4.29983       -2.31323       -0.73435
H         -4.75201       -2.39367        0.26373
H         -4.92830       -1.62790       -1.32280
H         -4.26826       -3.29285       -1.22584
H         -0.24448       -2.05157        0.02186
Pd        -1.22198        0.42385        0.14262
O         -1.70700        2.06310       -1.13376
C         -0.58447        2.56563       -0.85574
O          0.16637        1.92931       -0.04682
C         -0.12613        3.84355       -1.47196
H          0.63719        4.31920       -0.84385
H          0.31645        3.62067       -2.45512
H         -0.98113        4.51354       -1.62877
C          4.27422       -1.52659       -2.20007
H          4.01679       -2.55791       -1.91579
H          3.46242       -1.11361       -2.81783
H          5.21298       -1.51964       -2.76490
