46
Benzoisoxazole_H9_deriv1_Int1_Sub7.log	Energy: -775452.8140668
C         -0.49398       -0.74311        1.20763
C         -0.01728       -1.96966        0.63407
C          0.41346        0.34590        1.46878
C          1.33543       -1.95635        0.21556
N         -0.79678       -3.05532        0.51500
C          1.73546        0.36563        1.07676
H         -0.04019        1.19813        1.97533
C          2.13918       -0.83358        0.43639
C          2.21257       -2.85529       -0.46137
C          2.66103        1.56402        1.22992
O          3.35271       -1.07801       -0.06778
H          2.02954       -3.86120       -0.84044
N          3.39330       -2.33705       -0.62503
O         -3.02905        0.14776        0.12765
C         -3.30480        0.89585        1.15916
O         -2.48255        1.48751        1.83798
C         -4.78910        0.97162        1.44075
H         -5.23952       -0.03073        1.42562
H         -4.96113        1.45741        2.40854
H         -5.27482        1.55703        0.64567
H         -1.40223       -0.76643        1.81030
Pd        -1.18907        0.16729       -0.60036
O         -1.38413        1.07301       -2.54439
C         -0.15341        0.87538       -2.71251
O          0.48816        0.28414       -1.78061
C          0.56286        1.34498       -3.93341
H         -0.11774        1.35333       -4.79393
H          0.91069        2.37521       -3.75937
H          1.43957        0.71462       -4.12848
C          1.95480        2.70532        1.96044
H          2.64218        3.55874        2.05988
H          1.06565        3.05348        1.41334
H          1.64004        2.41028        2.97312
C          3.90886        1.16075        2.02884
H          4.46766        0.35555        1.53201
H          4.58353        2.02467        2.13564
H          3.63295        0.81834        3.03822
C          3.06755        2.05250       -0.16998
H          3.71142        2.94234       -0.08713
H          3.62014        1.28028       -0.72299
H          2.17645        2.31587       -0.75849
H         -0.40703       -3.86192        0.04919
C         -2.19852       -3.07458        0.85327
H         -2.64781       -3.99478        0.46060
H         -2.71910       -2.20564        0.41645
H         -2.35434       -3.05495        1.94517
