34
Benzothiophene_H9_Int1_Sub16.log	Energy: -881886.9909853
C         -0.42908       -1.10909        1.02620
C         -1.79900       -0.89343        0.87638
C          0.32280       -1.50740       -0.11141
C         -2.44061       -1.08976       -0.37133
S         -2.91469       -0.35733        2.09484
C         -0.33427       -1.72261       -1.37319
H          1.30921       -1.93491        0.06787
C         -1.69512       -1.50687       -1.49202
C         -3.84005       -0.80298       -0.28710
C         -4.21524       -0.40857        0.96389
O          0.33317       -2.12063       -2.46318
H         -2.17177       -1.65937       -2.46131
H         -4.53057       -0.88804       -1.12651
H         -5.21890       -0.13987        1.29361
O          2.67435        0.15506        0.25571
C          3.04609       -0.40180        1.37372
O          2.29661       -0.85846        2.21955
C          4.54970       -0.41947        1.53406
H          5.03690       -0.74522        0.60482
H          4.89705        0.60375        1.74215
H          4.82692       -1.07446        2.36854
H          0.09446       -1.06363        1.98429
Pd         0.79307        0.60976       -0.11248
O          0.89874        2.71114       -0.44317
C         -0.32873        2.69194       -0.73229
O         -0.92759        1.56849       -0.68534
C         -1.05793        3.92387       -1.14580
H         -0.64863        4.79748       -0.62263
H         -0.91227        4.07345       -2.22678
H         -2.13159        3.81423       -0.94891
C          1.73472       -2.24105       -2.40482
H          2.20633       -1.31579       -2.03208
H          2.04431       -3.08300       -1.76235
H          2.07046       -2.43773       -3.43014
