49
Benzothiophene_H9_deriv1_Int1_Sub3.log	Energy: -981871.1266549
C         -0.15318       -0.70851        1.03090
C         -1.44570       -1.27703        1.15778
C          0.67480       -1.05324       -0.07829
C         -1.93714       -2.17037        0.19701
S         -2.58641       -0.99708        2.42190
C          0.14536       -1.95249       -1.08142
C          2.15118       -0.72797        0.06137
C         -1.11495       -2.48483       -0.91263
C         -3.25535       -2.62324        0.51919
C         -3.71383       -2.07767        1.68325
C          0.90702       -2.29659       -2.32810
H         -1.50560       -3.16521       -1.67382
H         -3.83011       -3.31981       -0.09197
H         -4.67874       -2.24925        2.15965
O          0.92738        1.95921        0.64781
C          0.52325        2.40135        1.80825
O         -0.52656        2.08437        2.33915
C          1.50758        3.35750        2.44059
H          2.51721        2.92239        2.44451
H          1.55341        4.27882        1.84121
H          1.18934        3.59718        3.46198
H          0.28493       -0.19722        1.88905
Pd        -0.42008        0.94158       -0.38009
O         -1.31160        2.42419       -1.61360
C         -2.03891        1.52592       -2.12018
O         -1.86968        0.33079       -1.71563
C         -3.08834        1.84571       -3.12901
H         -2.81188        2.74561       -3.69232
H         -3.24405        0.99191       -3.80052
H         -4.03258        2.04436       -2.59875
H          1.92112       -2.66525       -2.12030
H          1.00628       -1.41588       -2.98131
H          0.37634       -3.07282       -2.89574
H          2.20425       -0.00772        0.89305
C          2.83210       -0.02099       -1.11400
H          2.25207        0.87401       -1.38750
H          2.86431       -0.67165       -2.00074
C          4.25779        0.36699       -0.73818
H          4.74861        0.86809       -1.58782
H          4.22284        1.10710        0.08109
C          5.06719       -0.84771       -0.29656
H          6.08639       -0.54747       -0.00404
H          5.18144       -1.53680       -1.15350
C          4.38475       -1.58528        0.85048
H          4.37818       -0.93574        1.74428
H          4.95654       -2.48617        1.12632
C          2.94763       -1.96374        0.50600
H          2.94806       -2.72418       -0.29400
H          2.45418       -2.42925        1.37461
