33
Benzo13dioxol_H9_Int1_Sub25.log	Energy: -842112.2758894
C          1.02882       -1.67491        0.55387
C         -0.15339       -1.58705        1.34436
C          0.95705       -1.67242       -0.86559
C         -1.33208       -1.47205        0.66563
H         -0.10983       -1.59679        2.43296
C         -0.29985       -1.59369       -1.53884
H          1.84973       -1.92606       -1.44101
C         -1.40364       -1.47513       -0.74543
O         -2.58815       -1.36306        1.16197
H         -0.37007       -1.61737       -2.62594
O         -2.70408       -1.36992       -1.11401
C         -3.45815       -1.23241        0.06507
H         -4.24575       -2.00472        0.10768
C         -4.12723        0.14637        0.09319
O          3.41528       -0.14397       -0.61815
C          4.19181       -0.52776        0.35828
O          3.81870       -0.78918        1.48875
C          5.64255       -0.60892       -0.05809
H          5.74209       -1.12361       -1.02360
H          6.03241        0.41156       -0.19057
H          6.22246       -1.12309        0.71743
H          1.97999       -1.87709        1.05441
Pd         1.55208        0.35822       -0.21537
O          1.54308        2.49912       -0.14318
C          0.29546        2.44676        0.02668
O         -0.24611        1.29177        0.05442
C         -0.52954        3.67273        0.21391
H         -0.34636        4.07111        1.22344
H         -0.22318        4.44184       -0.50771
H         -1.59466        3.43521        0.10628
F         -3.22967        1.11801        0.02846
F         -4.82628        0.27980        1.21502
F         -4.95660        0.25815       -0.93935
