36
Benzene_H10_Int1_Sub159.log	Energy: -586430.0695545
C          0.08868       -1.60891        1.10152
C         -1.05860       -1.26769        1.86360
C         -0.01952       -1.67744       -0.31021
C         -2.24422       -0.97083        1.23039
H         -0.99062       -1.24246        2.95317
C         -1.25759       -1.38525       -0.92866
H          0.80581       -2.05636       -0.91772
C         -2.36349       -1.01805       -0.18252
H         -3.11357       -0.68938        1.82963
H         -1.32910       -1.44316       -2.01742
C         -3.66591       -0.64820       -0.85308
O          2.68668       -0.54813        0.48358
C          3.26749       -0.98884       -0.60058
O          2.73049       -1.07863       -1.68999
C          4.70906       -1.37631       -0.36452
H          5.09340       -1.91894       -1.23630
H          5.30339       -0.46319       -0.21028
H          4.80437       -1.98537        0.54493
H          0.98834       -1.97914        1.59728
Pd         0.91912        0.29195        0.27673
O          1.35442        2.35446        0.04513
C          0.11465        2.58606        0.01080
O         -0.67370        1.59402        0.14148
C         -0.41964        3.95914       -0.21149
H         -0.54321        4.11566       -1.29437
H         -1.40098        4.06766        0.26752
H          0.28830        4.70727        0.16630
H         -3.52039       -0.80904       -1.93461
C         -4.81889       -1.54261       -0.40033
H         -5.74037       -1.29004       -0.94712
H         -4.59666       -2.60555       -0.57729
H         -5.02982       -1.41717        0.67367
C         -3.98095        0.83370       -0.64204
H         -3.13665        1.46309       -0.95616
H         -4.87816        1.12341       -1.21076
H         -4.17317        1.05053        0.42097
