33
Benzofuran_H13_Int1_Sub22.log	Energy: -632099.2342375
C         -0.01508       -1.52628        0.17505
C         -1.36999       -1.30503        0.63271
C         -0.04593       -1.24411       -1.20283
C         -2.09435       -0.91367       -0.50069
C         -2.01081       -1.38054        1.87414
H          0.65046       -1.51971       -1.99387
O         -1.29856       -0.90497       -1.60723
C         -3.44362       -0.56606       -0.48954
C         -3.36091       -1.06094        1.91796
H         -1.46289       -1.67539        2.77075
C         -4.05454       -0.66238        0.76219
C         -4.14811       -0.11729       -1.72968
H         -3.89900       -1.11160        2.86687
H         -5.11584       -0.41175        0.84122
O          2.64831       -0.50781       -0.66390
C          3.26445       -1.21256        0.24619
O          2.79105       -1.53780        1.32121
C          4.66631       -1.59169       -0.17249
H          4.67205       -1.98226       -1.19942
H          5.29726       -0.69026       -0.16316
H          5.07471       -2.33159        0.52585
H          0.79795       -2.00894        0.72397
Pd         0.94937        0.39377       -0.21248
O          1.46935        2.43260        0.18666
C          0.23858        2.67699        0.30884
O         -0.57828        1.71055        0.14934
C         -0.26254        4.04982        0.60025
H         -1.27100        4.00636        1.02933
H          0.43151        4.56622        1.27579
H         -0.30223        4.61673       -0.34268
H         -4.05926       -0.86542       -2.53249
H         -3.70583        0.81627       -2.11238
H         -5.21457        0.05980       -1.53690
