46
Benzo13dioxol_H8_deriv1_Int1_Sub11.log	Energy: -1066185.9629134
C          1.06252       -0.36433        1.85656
C         -0.07923        0.34509        2.16808
C          0.94385       -1.31244        0.79662
C         -1.27391        0.14560        1.48292
O         -0.24769        1.33080        3.08692
C         -0.30983       -1.52803        0.15574
H          1.72846       -2.05887        0.67002
C         -1.45955       -0.79117        0.45815
O         -2.19729        1.00936        1.95166
C         -1.50377        1.90622        2.81087
Cl        -0.35575       -2.76723       -1.05074
C         -2.76328       -0.91250       -0.27985
H         -2.07348        2.03382        3.74314
H         -1.37509        2.87364        2.28965
O          3.34386       -0.73402       -0.77361
C          4.16514       -1.03545        0.19192
O          3.95960       -0.84377        1.37824
C          5.44373       -1.65980       -0.31892
H          5.22105       -2.46308       -1.03478
H          6.02626       -0.89698       -0.85672
H          6.03040       -2.04425        0.52375
H          2.01616       -0.26769        2.37712
Pd         1.72794        0.32347       -0.42934
O          2.00309        2.02393       -1.69707
C          0.86946        2.43658       -1.34140
O          0.21098        1.72009       -0.51451
C          0.31238        3.72875       -1.83382
H         -0.78440        3.70650       -1.80609
H          0.66299        4.53780       -1.17433
H          0.67594        3.93460       -2.84845
H         -2.64760       -1.74187       -0.99524
C         -3.05701        0.35531       -1.09630
H         -2.20844        0.56099       -1.76727
H         -3.12797        1.21604       -0.41031
C         -4.35552        0.21243       -1.88081
H         -4.56600        1.14265       -2.43303
H         -4.23499       -0.57907       -2.64254
C         -5.52480       -0.14318       -0.96875
H         -6.44651       -0.27319       -1.55849
H         -5.71337        0.69804       -0.27723
C         -5.23228       -1.40063       -0.15713
H         -5.14870       -2.26360       -0.84235
H         -6.07052       -1.62526        0.52189
C         -3.93936       -1.26563        0.63940
H         -4.05626       -0.47837        1.40255
H         -3.71712       -2.20085        1.17819
