33
Benzooxazole_H10_Int1_Sub24.log	Energy: -689323.0820205
C         -0.02577       -0.98735        1.69261
C         -0.07055       -1.50249        0.35968
C          1.13199       -0.42505        2.22346
C          1.09693       -1.53642       -0.46742
H         -0.90033       -2.14712        0.06384
C          2.22096       -0.41097        1.36571
H          1.17530       -0.00610        3.22756
C          2.24978       -0.93478        0.05567
O          0.97355       -2.14251       -1.63559
O          3.44864        0.09926        1.60762
N          3.51908       -0.72571       -0.46928
C          4.15398       -0.12707        0.47005
H          5.18699        0.21814        0.46735
O         -2.60183       -0.41581       -0.56683
C         -3.34945       -0.92104        0.37273
O         -3.02349       -1.05917        1.53917
C         -4.71525       -1.32316       -0.13767
H         -4.62702       -1.89444       -1.07199
H         -5.23874       -1.90909        0.62711
H         -5.29381       -0.41502       -0.36420
H         -0.94668       -1.07265        2.27421
Pd        -0.88882        0.44814       -0.14212
O         -1.22400        2.47559       -0.71909
C         -0.01878        2.71773       -0.44751
O          0.69674        1.75339       -0.01622
C          0.57639        4.06984       -0.64804
H          1.36052        4.25297        0.09779
H          1.03740        4.10766       -1.64717
H         -0.20363        4.83926       -0.59541
C          2.02881       -2.10260       -2.57887
H          2.27938       -1.06496       -2.84312
H          2.93173       -2.59127       -2.18667
H          1.66028       -2.63764       -3.46185
