33
Benzoisoxazole_H8_Int1_Sub32.log	Energy: -689297.2616436
C         -0.06353       -1.62044       -0.43084
C          1.22910       -1.38892       -0.98343
C         -0.18479       -1.43699        0.97177
C          2.27717       -0.93357       -0.19406
C          1.82810       -1.47540       -2.27582
C          0.91095       -1.00150        1.75562
H         -1.11272       -1.71212        1.48044
C          2.15201       -0.71363        1.20841
O          3.37008       -0.76823       -0.95499
H          1.38232       -1.78789       -3.21972
N          3.07819       -1.11033       -2.24806
H          0.78456       -0.85513        2.82902
O          3.11519       -0.28357        2.01679
O         -2.72345       -0.54837       -0.57994
C         -3.48638       -0.90162        0.41935
O         -3.14997       -0.90598        1.59022
C         -4.87142       -1.30605       -0.03109
H         -5.40828       -1.77716        0.80072
H         -5.41653       -0.40750       -0.35715
H         -4.81755       -1.98523       -0.89302
H         -0.83380       -2.14771       -0.99616
Pd        -1.00296        0.33185       -0.19614
O         -1.39711        2.41870       -0.40798
C         -0.17061        2.63729       -0.22103
O          0.58617        1.62876       -0.02280
C          0.39852        4.01386       -0.25868
H         -0.38183        4.75375       -0.04308
H          1.22877        4.09924        0.45423
H          0.79455        4.20364       -1.26831
C          4.32156        0.23643        1.49238
H          4.90805       -0.53944        0.97933
H          4.12394        1.06265        0.79270
H          4.88573        0.61286        2.35391
