39
Benzofuran_H13_Int1_Sub5.log	Energy: -681402.6567686
C         -0.18777       -1.10805        0.84792
C         -1.58338       -0.81886        1.11670
C         -0.12252       -1.41516       -0.53019
C         -2.23803       -0.94519       -0.11589
C         -2.30874       -0.44539        2.25084
C          0.87842       -2.20092       -1.31862
O         -1.36126       -1.31377       -1.09060
C         -3.59358       -0.71145       -0.28458
C         -3.67402       -0.22138        2.10725
H         -1.81114       -0.32863        3.21544
C         -4.30391       -0.35217        0.85897
H         -4.06883       -0.80615       -1.26144
H         -4.26823        0.06724        2.97677
H         -5.37717       -0.16410        0.78069
O          2.45928       -0.09453        0.24772
C          2.85737       -0.07293        1.49205
O          2.14006        0.17943        2.44363
C          4.32606       -0.39752        1.63728
H          4.57985       -1.30514        1.07188
H          4.91943        0.42628        1.21331
H          4.57581       -0.52178        2.69751
H          0.56974       -1.33668        1.59664
Pd         0.64959        0.61933       -0.11838
O          0.96494        2.65491       -0.70326
C         -0.27582        2.74420       -0.90950
O         -0.98903        1.70776       -0.70542
C         -0.89850        4.00503       -1.40373
H         -1.97291        4.01332       -1.18353
H         -0.39752        4.87157       -0.95320
H         -0.75864        4.06225       -2.49421
H          1.83471       -2.07659       -0.79016
C          0.47503       -3.67773       -1.30056
H          1.22852       -4.28041       -1.82931
H          0.39203       -4.06011       -0.27231
H         -0.49392       -3.82605       -1.80093
C          1.02556       -1.66568       -2.73934
H          1.36580       -0.61953       -2.73532
H          1.76399       -2.26234       -3.29433
H          0.06835       -1.71381       -3.27999
