34
Benzofuran_H9_Int1_Sub16.log	Energy: -679257.1636599
C          0.50433       -1.11420       -1.23779
C          1.87172       -0.94988       -1.13354
C         -0.18584       -1.49834       -0.05099
C          2.58570       -1.17365        0.06224
O          2.71676       -0.54556       -2.11639
C          0.53848       -1.75761        1.16730
H         -1.18841       -1.90674       -0.17659
C          1.91459       -1.58286        1.22430
C          3.95150       -0.87994       -0.25926
C          3.94852       -0.51414       -1.57124
O         -0.07638       -2.16459        2.28317
H          2.43625       -1.76381        2.16444
H          4.81692       -0.92940        0.39681
H          4.75101       -0.21185       -2.24089
O         -2.55410        0.18563       -0.06225
C         -3.02786       -0.32012       -1.16619
O         -2.35724       -0.73540       -2.09561
C         -4.53976       -0.33537       -1.19031
H         -4.94031       -0.71661       -0.24089
H         -4.90479        0.69625       -1.30598
H         -4.89232       -0.94309       -2.03208
H         -0.06198       -1.01630       -2.16555
Pd        -0.63831        0.61324        0.11795
O         -0.66433        2.71177        0.50202
C          0.58751        2.66504        0.63904
O          1.15448        1.53052        0.51170
C          1.39425        3.88962        0.90598
H          2.33385        3.62589        1.40725
H          1.63341        4.36891       -0.05594
H          0.81318        4.60086        1.50657
C         -1.48155       -2.26074        2.30320
H         -1.95680       -1.31866        1.98120
H         -1.84085       -3.08016        1.65749
H         -1.75996       -2.48030        3.34089
