39
Benzo13dioxol_H9_Int1_Sub21.log	Energy: -704671.3288813
C         -0.24102       -0.86815       -1.61686
C          0.75970       -0.15491       -2.32876
C          0.04961       -1.50808       -0.38049
C          1.99187       -0.09950       -1.73637
H          0.54646        0.33521       -3.27776
C          1.35618       -1.46392        0.20499
H         -0.68830       -2.20040        0.02783
C          2.27201       -0.73031       -0.50297
O          3.10466        0.52883       -2.16430
C          1.68763       -2.04809        1.55559
O          3.55891       -0.47598       -0.16784
C          4.05579        0.44227       -1.12057
H          5.01465        0.08001       -1.52278
H          4.17901        1.43521       -0.65045
O         -2.61536       -0.63628        0.29415
C         -3.47402       -0.56723       -0.68713
O         -3.25385       -0.06173       -1.77321
C         -4.80635       -1.18630       -0.32994
H         -4.66375       -2.17807        0.12129
H         -5.30502       -0.55528        0.42089
H         -5.43445       -1.25664       -1.22583
H         -1.21025       -1.02658       -2.09471
Pd        -0.93987        0.38726        0.12479
O         -1.29384        2.21323        1.18666
C         -0.09529        2.53389        0.97312
O          0.63405        1.71318        0.32320
C          0.46230        3.83908        1.43095
H         -0.14913        4.25185        2.24237
H          1.50492        3.71295        1.75106
H          0.44976        4.54333        0.58486
H          2.74083       -2.37420        1.50536
C          1.59450       -0.95413        2.62500
H          1.91312       -1.33930        3.60605
H          2.22649       -0.09228        2.36698
H          0.55732       -0.59341        2.71637
C          0.82920       -3.25287        1.91842
H          0.86688       -4.03086        1.14090
H          1.18020       -3.69875        2.86082
H         -0.22411       -2.96712        2.06733
