32
Benzoisoxazole_H9_Int1_Sub14.log	Energy: -642136.3804606
C         -0.09106       -1.66978        0.05976
C          0.55892       -1.26258       -1.13043
C          0.59416       -1.72614        1.32893
C          1.93329       -0.93034       -1.03371
H          0.06286       -1.38152       -2.09625
C          1.92430       -1.37260        1.40161
C         -0.19290       -2.16824        2.52090
C          2.56078       -0.98232        0.20790
C          2.97908       -0.48354       -1.89500
H          2.47230       -1.38357        2.34479
O          3.83407       -0.60804        0.07959
H          2.95846       -0.29148       -2.96754
N          4.08803       -0.29973       -1.23691
O         -2.25840       -0.23392       -1.14247
C         -3.18078       -0.64499       -0.31354
O         -3.00756       -0.79312        0.88473
C         -4.50353       -0.91114       -0.98937
H         -4.35953       -1.47192       -1.92298
H         -5.16547       -1.45674       -0.30654
H         -4.96680        0.05146       -1.25348
H         -1.07557       -2.13589        0.00428
Pd        -0.62996        0.42471       -0.24694
O         -0.97082        2.49678        0.06426
C          0.18862        2.58369        0.55510
O          0.88305        1.51573        0.61006
C          0.74972        3.88040        1.02426
H         -0.05880        4.54994        1.34268
H          1.46674        3.71128        1.83752
H          1.28529        4.35400        0.18691
H         -0.40245       -3.24928        2.46330
H         -1.16623       -1.65433        2.53870
H          0.34466       -1.97431        3.45838
