46
Benzo13dioxol_H9_Int1_Sub27.log	Energy: -777875.0817101
C          1.77429       -1.67420        0.56286
C          0.60216       -1.81578        1.35844
C          1.70135       -1.71456       -0.85684
C         -0.58192       -1.94504        0.68737
H          0.65044       -1.79141        2.44666
C          0.45487       -1.90888       -1.52338
H          2.62801       -1.78389       -1.43013
C         -0.65457       -1.98906       -0.72912
O         -1.82648       -2.05428        1.18392
H          0.38984       -1.96237       -2.60983
O         -1.94382       -2.12348       -1.08902
C         -2.72300       -1.89453        0.08505
H         -3.49182       -2.68152        0.14856
C         -3.31198       -0.49853        0.07378
O          3.76592        0.30186       -0.59615
C          4.57348        0.18174        0.42320
O          4.22562       -0.04836        1.56756
C          6.02183        0.37066        0.03316
H          6.25936       -0.20651       -0.87106
H          6.19262        1.43183       -0.20253
H          6.67088        0.07225        0.86493
H          2.74600       -1.66965        1.06218
Pd         1.83260        0.41107       -0.24187
O          1.38709        2.51126       -0.22827
C          0.17230        2.22173       -0.07968
O         -0.14357        0.98614       -0.02977
C         -0.88315        3.26795        0.05130
H         -0.46435        4.26358       -0.13514
H         -1.70117        3.05732       -0.65227
H         -1.30252        3.22758        1.06782
H         -2.44495        0.18511        0.00836
C         -4.06738       -0.20270        1.36809
H         -3.39831       -0.34188        2.23051
H         -4.89027       -0.93324        1.48356
C         -4.64372        1.20871        1.35431
H         -5.20845        1.39621        2.28139
H         -3.81061        1.93469        1.34636
C         -5.52662        1.44395        0.13351
H         -5.89814        2.48126        0.12124
H         -6.41938        0.79610        0.20257
C         -4.78172        1.13000       -1.15942
H         -3.95685        1.85407       -1.28921
H         -5.44521        1.25986       -2.02918
C         -4.20310       -0.28052       -1.14756
H         -5.03063       -1.01470       -1.12819
H         -3.63079       -0.47471       -2.06718
