35
Benzofuran_H13_deriv1_Int1_Sub7.log	Energy: -955127.9838028
C          0.25599       -0.54936        1.22559
C          1.59257       -0.33149        0.73594
C         -0.12210        0.68716        1.78345
C          1.92741        0.98552        1.06253
C          2.45529       -1.13814       -0.04183
Cl        -1.34099        1.03088        2.92211
O          0.87914        1.58734        1.71729
C          3.13871        1.57275        0.74088
C          3.70988       -0.56577       -0.33999
N          2.03975       -2.35895       -0.45697
C          4.02410        0.74024        0.04957
H          3.37608        2.60244        1.00350
H          4.44024       -1.13508       -0.91534
H          5.00620        1.13484       -0.22306
O         -2.30637       -1.08850        0.22347
C         -1.99422       -2.29181       -0.14259
O         -0.89114       -2.64539       -0.54832
C         -3.14637       -3.26129       -0.03399
H         -3.68000       -3.12368        0.91607
H         -3.86109       -3.05053       -0.84378
H         -2.78100       -4.29036       -0.13097
H         -0.20931       -1.50631        1.44298
Pd        -1.02901        0.36733       -0.22694
O         -1.80097        1.18132       -2.04408
C         -0.85244        2.01250       -2.02997
O         -0.03219        1.95836       -1.05615
C         -0.69858        3.04901       -3.08885
H          0.35997        3.31058       -3.21181
H         -1.13071        2.69361       -4.03247
H         -1.24366        3.95296       -2.77580
H          1.02947       -2.52176       -0.44242
C          2.82110       -3.18431       -1.33055
H          2.26178       -4.10451       -1.54242
H          3.77855       -3.47294       -0.86487
H          3.05069       -2.69396       -2.29603
