33
Benzothiophene_H9_Int1_Sub9.log	Energy: -1021466.0879800
C         -0.05637       -0.53753       -1.42380
C         -1.09271       -1.44392       -1.08515
C         -0.28118        0.83810       -1.18381
C         -2.30748       -1.01083       -0.52377
S         -1.05543       -3.15709       -1.27507
C         -1.52688        1.27389       -0.62586
H          0.40208        1.57667       -1.60882
C         -2.50888        0.37561       -0.29755
C         -3.19036       -2.10298       -0.26101
C         -2.64411       -3.30171       -0.61807
C         -1.70335        2.74380       -0.37573
H         -3.44596        0.72538        0.13846
H         -4.18409       -1.99486        0.17433
H         -3.09802       -4.28852       -0.53055
O          2.53039        0.76388       -0.54596
C          3.23449       -0.06940       -1.26337
O          2.90327       -1.21114       -1.53370
C          4.53771        0.53409       -1.73148
H          4.37458        1.54114       -2.13916
H          5.21251        0.63686       -0.86846
H          4.99957       -0.11850       -2.48165
H          0.82285       -0.88183       -1.97601
Pd         0.97783        0.07605        0.45233
O          1.71544       -0.23149        2.41584
C          0.54591       -0.54264        2.77468
O         -0.36609       -0.52545        1.88431
C          0.22479       -0.88500        4.18762
H          1.09143       -1.35652        4.66780
H         -0.00502        0.04551        4.72949
H         -0.65480       -1.53931        4.23034
F         -2.94993        3.04474       -0.00948
F         -1.41572        3.45982       -1.46762
F         -0.88565        3.17031        0.59466
