27
Benzene_H10_Int1_Sub22.log	Energy: -574720.9175716
C          0.39260       -1.78162       -0.35903
C          1.73816       -1.78527       -0.79895
C          0.13561       -1.57401        1.02110
C          2.78211       -1.55408        0.06517
F          1.97423       -2.01781       -2.08247
C          1.21216       -1.34978        1.90869
H         -0.87846       -1.68439        1.41412
C          2.50714       -1.33583        1.42910
H          3.80320       -1.54567       -0.31916
H          1.00626       -1.19228        2.96832
H          3.34004       -1.15258        2.11132
O         -2.02136       -0.28238       -0.72814
C         -2.93258       -0.43961        0.19506
O         -2.71884       -0.41407        1.39408
C         -4.31055       -0.65190       -0.38651
H         -4.99913       -0.97549        0.40293
H         -4.66563        0.29664       -0.81659
H         -4.27971       -1.38814       -1.20139
H         -0.38828       -2.13346       -1.03657
Pd        -0.24224        0.33645       -0.15763
O         -0.33391        2.43110       -0.40196
C          0.88102        2.49778       -0.06284
O          1.47530        1.40301        0.20408
C          1.58821        3.80244        0.05686
H          1.40119        4.21103        1.06203
H          2.66919        3.66402       -0.06881
H          1.19328        4.51380       -0.67949
