30
Benzo13dioxol_H9_Int1_Sub26.log	Energy: -919042.5922942
C          0.63149       -1.68520        0.54925
C         -0.53914       -1.58591        1.35335
C          0.54601       -1.67262       -0.87066
C         -1.72099       -1.44510        0.68378
H         -0.48452       -1.60311        2.44134
C         -0.71381       -1.57064       -1.53277
H          1.43257       -1.92681       -1.45523
C         -1.80602       -1.43699       -0.72470
O         -2.97784       -1.31922        1.17829
H         -0.79446       -1.58525       -2.61930
O         -3.11368       -1.30727       -1.06419
C         -3.80198       -1.00191        0.10463
H         -4.74640       -1.55564        0.15886
Cl        -4.24053        0.74717        0.13977
O          3.00638       -0.12689       -0.63078
C          3.78890       -0.51769        0.33803
O          3.42136       -0.79223        1.46727
C          5.23814       -0.58815       -0.08500
H          5.33591       -1.08823       -1.05831
H          5.62408        0.43553       -0.20374
H          5.82271       -1.11142        0.68089
H          1.58724       -1.89491        1.03750
Pd         1.14247        0.35957       -0.21377
O          1.10902        2.50093       -0.13277
C         -0.13728        2.43239        0.04137
O         -0.66207        1.26951        0.06839
C         -0.98118        3.64441        0.22986
H         -0.76505        4.07787        1.21799
H         -0.72394        4.39804       -0.52678
H         -2.04340        3.37762        0.17178
