29
Benzooxazole_H10_Int1_Sub18.log	Energy: -905825.5682990
C         -0.07162       -1.20975        1.30160
C          0.14246       -1.59831       -0.05590
C          0.95479       -0.62214        2.07018
C          1.40929       -1.41861       -0.66867
H         -0.60523       -2.20486       -0.57006
C          2.14952       -0.43487        1.41652
H          0.79643       -0.32818        3.10711
C          2.40800       -0.81241        0.07522
Cl         1.67680       -1.92389       -2.28174
O          3.28862        0.13098        1.88432
N          3.70800       -0.46265       -0.23923
C          4.15252        0.07240        0.83945
H          5.14536        0.48461        1.01841
O         -2.54476       -0.62818       -0.49981
C         -3.34844       -0.87550        0.49947
O         -3.07448       -0.70294        1.67435
C         -4.68942       -1.39994        0.04261
H         -4.56306       -2.17875       -0.72183
H         -5.24777       -1.78699        0.90315
H         -5.25426       -0.57667       -0.42005
H         -1.02531       -1.45090        1.77941
Pd        -0.88654        0.36915       -0.14670
O         -1.34777        2.36310       -0.70144
C         -0.14678        2.67324       -0.47287
O          0.62975        1.74739       -0.06321
C          0.36655        4.05200       -0.69996
H          1.17922        4.27454        0.00317
H          0.77005        4.11150       -1.72266
H         -0.44807        4.78037       -0.60421
