30
Benzo13dioxol_H9_Int1_Sub10.log	Energy: -919034.4719640
C          0.20356       -1.39224        0.75947
C         -0.87625       -1.08218        1.64482
C         -0.05061       -1.63521       -0.61809
C         -2.11781       -0.96731        1.09181
H         -0.68503       -0.91577        2.70437
C         -1.35975       -1.54452       -1.16306
Cl         1.16694       -2.37156       -1.60059
C         -2.35043       -1.18803       -0.28781
O         -3.28959       -0.64291        1.67843
H         -1.54756       -1.73253       -2.21870
O         -3.65401       -0.99510       -0.54376
C         -4.22257       -0.45090        0.63629
H         -5.15862       -0.97874        0.87065
H         -4.40149        0.62992        0.48851
O          2.54028        0.08761       -0.24866
C          3.18164       -0.06542        0.87608
O          2.65932       -0.08775        1.97777
C          4.66976       -0.22646        0.66987
H          4.86469       -1.03645       -0.04731
H          5.08132        0.69707        0.23712
H          5.15611       -0.43847        1.62924
H          1.16749       -1.65914        1.19332
Pd         0.63545        0.55187       -0.15022
O          0.62080        2.63829       -0.56650
C         -0.63646        2.62775       -0.49121
O         -1.20641        1.51227       -0.25309
C         -1.43914        3.87546       -0.63872
H         -0.87947        4.62192       -1.21536
H         -2.40236        3.65301       -1.11582
H         -1.63899        4.28503        0.36357
