45
Benzothiophene_H13_deriv1_Int1_Sub28.log	Energy: -1057819.3849928
C         -0.02545        0.24021       -1.10345
C          0.90626       -0.83257       -0.81427
C         -1.06408       -0.18250       -1.94955
C          0.55298       -2.02329       -1.48902
C          2.02396       -0.83660        0.04365
H         -1.72469        0.47664       -2.51535
S         -0.89030       -1.83914       -2.45777
C          1.28866       -3.19942       -1.34930
C          2.75593       -2.01180        0.17494
C          2.41624        0.37541        0.86935
C          2.40014       -3.17454       -0.51955
H          0.99599       -4.11155       -1.87249
H          3.60791       -2.02950        0.85470
H          2.99745       -4.07972       -0.39010
O         -2.57710        1.76583       -0.46167
C         -1.91528        2.88908       -0.46481
O         -0.70588        3.01202       -0.36700
C         -2.83154        4.08491       -0.59839
H         -3.57569        3.91683       -1.38879
H         -3.38212        4.21651        0.34523
H         -2.24056        4.98485       -0.80549
H          0.14117        1.29878       -0.87761
Pd        -1.82425        0.01995        0.07454
O         -2.86526       -0.44845        1.88147
C         -2.25518       -1.55218        1.89747
O         -1.44422       -1.79402        0.94344
C         -2.48428       -2.56082        2.96937
H         -3.38276       -3.14481        2.71688
H         -1.62829       -3.24291        3.04091
H         -2.66593       -2.05500        3.92631
F          3.00768       -0.08115        2.01172
F          1.28333        1.01354        1.26819
C          3.37114        1.40093        0.21654
C          2.73777        2.01887       -1.02931
H          3.44065        2.74552       -1.46390
H          2.52865        1.26374       -1.80227
H          1.80858        2.55685       -0.79013
C          3.63681        2.50333        1.24727
H          4.10202        2.09746        2.15616
H          4.31647        3.25346        0.81628
H          2.70276        3.00812        1.53011
C          4.68116        0.70498       -0.15392
H          5.38699        1.44555       -0.55856
H          5.15014        0.23794        0.72452
H          4.53079       -0.06841       -0.92224
