39
Benzo13dioxol_H8_deriv1_Int1_Sub21.log	Energy: -992990.9407242
C         -0.07662       -0.95166        1.14209
C         -1.35807       -0.69586        0.70283
C          0.83068       -1.52541        0.19544
C         -1.75952       -0.99916       -0.59837
O         -2.39322       -0.12264        1.36113
C          0.37490       -1.86842       -1.10845
H          1.76221       -1.96130        0.55760
C         -0.92249       -1.60092       -1.53124
O         -3.02978       -0.61852       -0.77512
C         -3.41056        0.11446        0.39857
Cl         1.46805       -2.65571       -2.18295
H         -1.25877       -1.83014       -2.54128
C         -4.76508       -0.32893        0.90321
H         -3.40519        1.19120        0.13331
O          3.24074        0.08328        0.54174
C          3.40070       -0.25523        1.78953
O          2.49878       -0.47247        2.58110
C          4.85901       -0.34755        2.17667
H          5.42005       -0.92945        1.43247
H          5.29061        0.66443        2.19142
H          4.95038       -0.80000        3.17119
H          0.27629       -0.76213        2.15686
Pd         1.45796        0.54262       -0.13936
O          1.68800        2.57998       -0.73533
C          0.50168        2.56038       -1.15424
O         -0.14829        1.46758       -1.03981
C         -0.14748        3.77095       -1.73318
H         -0.91932        3.48013       -2.45700
H         -0.62879        4.33518       -0.91928
H          0.60605        4.41715       -2.20036
H         -4.66357       -1.40709        1.11929
C         -5.10690        0.40712        2.19232
H         -6.07307        0.05993        2.58637
H         -4.34051        0.24285        2.96242
H         -5.18949        1.49239        2.01710
C         -5.82118       -0.13168       -0.17644
H         -5.56596       -0.67988       -1.09413
H         -6.80011       -0.48757        0.17617
H         -5.92832        0.93500       -0.43349
