34
Benzo13dioxol_H8_deriv1_Int1_Sub32.log	Energy: -990859.6881773
C          0.15093       -0.92479        1.38148
C         -1.22511       -0.94685        1.25333
C          0.90530       -1.50775        0.31484
C         -1.84990       -1.50940        0.14802
O         -2.17504       -0.44150        2.08549
C          0.23256       -2.11800       -0.78250
H          1.96034       -1.73215        0.47794
C         -1.15122       -2.11690       -0.89176
O         -3.17996       -1.36512        0.27199
C         -3.38175       -0.48556        1.38932
Cl         1.17961       -2.88536       -2.00115
H         -1.66161       -2.55273       -1.74938
H         -4.17988       -0.92415        2.01615
O         -3.68802        0.77179        0.97539
O          2.94415        0.62236        0.11093
C          3.41902        0.42878        1.30784
O          2.77389        0.06328        2.27581
C          4.90092        0.71822        1.38759
H          5.43585        0.21520        0.57018
H          5.06279        1.79955        1.26527
H          5.28962        0.39524        2.36053
H          0.68720       -0.54371        2.25319
Pd         1.02268        0.59414       -0.28938
O          0.66137        2.55021       -1.09002
C         -0.52895        2.19993       -1.29709
O         -0.84936        0.99896       -1.00395
C         -1.55112        3.12547       -1.86064
H         -1.83537        2.78083       -2.86605
H         -2.44989        3.08985       -1.22887
H         -1.15687        4.14669       -1.91752
C         -4.96145        0.90159        0.38951
H         -5.02686        0.34402       -0.55895
H         -5.75554        0.54483        1.07074
H         -5.11796        1.96915        0.19285
