35
Benzo13dioxol_H8_deriv1_Int1_Sub31.log	Energy: -978401.8959522
C          0.10595       -1.03672        1.45276
C         -1.25556       -1.12828        1.26449
C          0.93739       -1.49902        0.38456
C         -1.80548       -1.67566        0.10004
O         -2.26059       -0.67547        2.05318
C          0.35108       -2.09349       -0.76967
H          1.99687       -1.66649        0.57779
C         -1.02526       -2.18004       -0.93731
O         -3.13165       -1.57754        0.14707
C         -3.41882       -0.63018        1.24819
Cl         1.39464       -2.73613       -1.98084
H         -1.47160       -2.59645       -1.83926
H         -4.28529       -1.04476        1.78341
N         -3.65392        0.66267        0.79860
O          2.89928        0.58392       -0.03073
C          3.40648        0.46754        1.16601
O          2.77078        0.20539        2.17212
C          4.89846        0.70460        1.18113
H          5.38809        0.14122        0.37497
H          5.09329        1.77195        0.99852
H          5.30745        0.41921        2.15752
H          0.57627       -0.64008        2.35355
Pd         0.95362        0.60250       -0.23722
O          0.60782        2.57829       -0.96576
C         -0.61887        2.32431       -1.04313
O         -1.00552        1.14875       -0.71813
C         -1.61402        3.35439       -1.45884
H         -2.40095        2.89451       -2.07168
H         -2.08412        3.77450       -0.55569
H         -1.11906        4.16554       -2.00608
H         -2.82547        1.02319        0.31777
C         -4.88284        0.88327        0.07337
H         -5.01027        1.95894       -0.11393
H         -5.73994        0.55612        0.68319
H         -4.93528        0.35241       -0.89575
