53
Carbazole_H8_Int1_Sub19.log	Energy: -838488.9357574
C          1.17619       -0.36909       -1.67755
C         -0.01508       -1.11947       -1.54447
C          1.19885        1.01759       -1.37108
C         -1.20186       -0.55154       -1.10580
H          0.02525       -2.18064       -1.78747
C         -0.03295        1.59870       -0.97750
H          2.04909        1.63909       -1.65974
C         -1.21239        0.84215       -0.82043
C         -2.44378       -1.37175       -0.88260
N         -0.28672        2.90767       -0.67641
C         -2.23205        1.77491       -0.38214
C         -1.60499        3.04966       -0.30866
H          0.39935        3.64846       -0.69163
C         -3.59095        1.68233       -0.03966
C         -2.28984        4.20180        0.08120
C         -4.27615        2.82573        0.34930
H         -4.11367        0.72638       -0.07019
C         -3.63282        4.07293        0.40888
H         -1.78563        5.16941        0.12904
H         -5.33266        2.75403        0.61596
H         -4.19614        4.95556        0.72013
O          3.80603        0.53732       -0.32148
C          4.49977       -0.37266       -0.95096
O          4.07769       -1.46285       -1.29218
C          5.92254        0.06762       -1.21317
H          5.94593        1.08915       -1.61719
H          6.47358        0.08036       -0.26076
H          6.40546       -0.63298       -1.90467
H          2.06121       -0.84383       -2.10818
Pd         2.04010        0.02287        0.39332
O          2.42087       -0.54213        2.41131
C          1.17878       -0.69601        2.56937
O          0.42237       -0.46430        1.57153
C          0.60121       -1.10387        3.88182
H          0.47040       -0.20463        4.50338
H         -0.37952       -1.57413        3.73791
H          1.29028       -1.78079        4.40279
H         -3.29770       -0.76367       -1.23304
C         -2.64700       -1.63448        0.62050
H         -2.60142       -0.68928        1.18206
H         -1.79175       -2.23330        0.97749
C         -3.95655       -2.36721        0.88455
H         -4.06306       -2.57266        1.96212
H         -4.80271       -1.70905        0.61247
C         -4.05024       -3.66077        0.08289
H         -5.02588       -4.14639        0.24632
H         -3.28529       -4.36824        0.45100
C         -3.82111       -3.41155       -1.40396
H         -4.64961       -2.79933       -1.80434
H         -3.84305       -4.36205       -1.96067
C         -2.49987       -2.69109       -1.65121
H         -1.67412       -3.34568       -1.32204
H         -2.35010       -2.50976       -2.72783
