40
Carbazole_H7_Int1_Sub14.log	Energy: -715990.7729960
C          0.82532       -1.23077        1.24351
C          0.56377       -0.48159        2.43382
C         -0.19110       -1.45403        0.26687
C         -0.66366        0.09054        2.65811
H          1.37513       -0.36682        3.15452
C         -1.45340       -0.85971        0.50450
C          0.01485       -2.42961       -0.85160
C         -1.66034       -0.09839        1.67972
H         -0.85995        0.68400        3.55289
C         -2.69689       -0.82643       -0.23292
N         -2.93890        0.37887        1.67522
C         -3.59336       -0.03526        0.53431
C         -3.14609       -1.36997       -1.44465
H         -3.33384        0.97719        2.38617
C         -4.90067        0.22173        0.12228
C         -4.44737       -1.11439       -1.86039
H         -2.48893       -1.98672       -2.05799
C         -5.31426       -0.32723       -1.08598
H         -5.57548        0.83208        0.72639
H         -4.80281       -1.53315       -2.80421
H         -6.33230       -0.14361       -1.43683
O          2.70372       -0.88500       -0.90191
C          3.78722       -0.97000       -0.17774
O          3.90944       -0.49641        0.93787
C          4.89638       -1.72485       -0.87386
H          4.52206       -2.67470       -1.28097
H          5.26005       -1.12779       -1.72345
H          5.71985       -1.90471       -0.17264
H          1.73281       -1.83509        1.21212
Pd         1.32187        0.32904       -0.18366
O          1.65004        2.16183       -1.22038
C          0.65871        2.64894       -0.61314
O          0.03338        1.89610        0.20156
C          0.24358        4.06832       -0.80667
H         -0.83631        4.17421       -0.64284
H          0.76987        4.69233       -0.06786
H          0.52409        4.41152       -1.81026
H         -0.27918       -1.99555       -1.81787
H         -0.60627       -3.32478       -0.68359
H          1.06863       -2.72239       -0.92582
