40
Carbazole_H7_Int1_Sub22.log	Energy: -715991.9421277
C         -0.80725       -0.08292       -1.80509
C         -0.33522        1.20090       -2.20923
C          0.04538       -0.97048       -1.09736
C          0.93668        1.64440       -1.91364
H         -1.01672        1.85142       -2.76167
C          1.36485       -0.54498       -0.81356
H         -0.25832       -2.00665       -0.93476
C          1.77251        0.74509       -1.20476
C          1.43154        3.00615       -2.28287
C          2.48008       -1.14732       -0.12993
N          3.06514        0.94111       -0.79398
C          3.52208       -0.18333       -0.13901
C          2.69134       -2.38443        0.49112
H          3.59354        1.79130       -0.92274
C          4.76312       -0.43513        0.44870
C          3.92403       -2.63702        1.07786
H          1.89683       -3.13358        0.51661
C          4.94696       -1.67237        1.05435
H          5.56031        0.31129        0.43602
H          4.10439       -3.59624        1.56759
H          5.90692       -1.89863        1.52412
O         -2.48232       -1.55227        0.17533
C         -3.58514       -1.42444       -0.51208
O         -3.87327       -0.45833       -1.19539
C         -4.49584       -2.62276       -0.36676
H         -3.93457       -3.55581       -0.51491
H         -4.89973       -2.64428        0.65649
H         -5.32086       -2.55035       -1.08526
H         -1.77132       -0.42386       -2.18759
Pd        -1.33014        0.03843        0.34186
O         -1.89139        0.92726        2.19704
C         -0.98165        1.78332        2.02632
O         -0.27088        1.69415        0.97312
C         -0.75972        2.88945        3.00173
H          0.27653        3.24566        2.94714
H         -1.43154        3.72335        2.74583
H         -1.00625        2.55225        4.01648
H          1.63868        3.60195       -1.37811
H          0.68901        3.55196       -2.87930
H          2.36412        2.95347       -2.86911
