29
Cyclopentadiene_H5_Int1_Sub30.log	Energy: -513226.1242038
C          0.03043       -1.50699        1.01703
C         -1.24286       -1.54457        1.81403
C         -0.28163       -1.83882       -0.30833
H         -1.16612       -2.31875        2.60044
H         -1.45052       -0.59515        2.33809
C         -2.28278       -1.87178        0.79295
H          0.44794       -2.13424       -1.06598
C         -1.73160       -2.04483       -0.43044
H         -3.35094       -1.91730        1.01284
C         -2.41369       -2.33538       -1.72199
O          1.95008       -0.16161       -0.78460
C          2.91789       -0.15468        0.09302
O          2.76518       -0.05894        1.29760
C          4.28029       -0.27096       -0.55117
H          5.04162       -0.43762        0.21992
H          4.29161       -1.08484       -1.28928
H          4.50201        0.66194       -1.09081
H          1.02409       -1.53980        1.47049
Pd         0.14415        0.28823       -0.12840
O         -0.09213        2.39230       -0.49587
C         -1.26135        2.30093       -0.03687
O         -1.66463        1.15279        0.34769
C         -2.14756        3.49307        0.09326
H         -1.89539        4.23716       -0.67245
H         -3.20164        3.19641        0.02384
H         -1.98009        3.94631        1.08266
H         -2.27502       -1.50143       -2.42919
H         -3.49212       -2.48772       -1.58055
H         -1.99737       -3.23599       -2.20096
