29
Cyclopentadiene_H5_deriv1_Int1_Sub6.log	Energy: -801540.2944007
C         -0.64750        1.25690        0.58894
C          0.41060        2.11074        1.25405
C         -0.54459        1.46420       -0.79785
C         -0.20664        3.14366        2.19993
H          1.11221        1.47830        1.82959
C          1.14200        2.71251        0.09087
Cl        -1.77252        1.22755       -1.97355
C          0.58921        2.34597       -1.08072
H          2.02836        3.33901        0.20635
H          0.90851        2.61361       -2.08724
O         -1.51456       -1.32838       -0.36530
C         -2.16557       -1.61608        0.72782
O         -1.82336       -1.27822        1.84825
C         -3.41506       -2.42118        0.45825
H         -4.02863       -1.92224       -0.30513
H         -3.13410       -3.40613        0.05733
H         -3.98346       -2.54652        1.38726
H         -1.54435        0.92830        1.11620
Pd         0.25632       -0.49899       -0.12710
O          1.63397       -2.13787       -0.23541
C          2.57511       -1.31575       -0.07739
O          2.27542       -0.08179        0.04800
C          4.00086       -1.75170       -0.06908
H          4.08052       -2.77387        0.32146
H          4.37385       -1.74933       -1.10503
H          4.61076       -1.05542        0.51992
H          0.57368        3.78846        2.63020
H         -0.73129        2.64226        3.02593
H         -0.92613        3.78311        1.66692
