38
Cyclopentadiene_H5_Int1_Sub28.log	Energy: -587176.5336303
C          0.13806       -1.11032        1.45631
C         -0.75086       -0.44016        2.46403
C         -0.62509       -1.35866        0.30742
H         -0.84376       -1.08019        3.36142
H         -0.35105        0.52593        2.81899
C         -2.04713       -0.28731        1.73729
H         -0.33369       -2.04905       -0.48678
C         -1.97978       -0.81473        0.49245
H         -2.90562        0.23503        2.15951
C         -3.02043       -0.80585       -0.60152
O          1.94140       -1.07859       -0.85453
C          3.00910       -1.39955       -0.17276
O          3.23116       -1.05079        0.97270
C          3.96521       -2.25869       -0.96747
H          4.75886       -2.63440       -0.31105
H          3.43090       -3.09207       -1.44444
H          4.40852       -1.65262       -1.77163
H          1.07813       -1.59935        1.72055
Pd         0.75981        0.27649       -0.04010
O          1.40304        2.16309       -0.84454
C          0.46750        2.71221       -0.20528
O         -0.29555        1.96759        0.49703
C          0.26176        4.18894       -0.22999
H          0.64958        4.61036       -1.16559
H         -0.80111        4.42863       -0.09946
H          0.82034        4.63367        0.60819
C         -4.32085       -0.17693       -0.10514
H         -5.07563       -0.18118       -0.90619
H         -4.73460       -0.73288        0.75036
H         -4.16620        0.86761        0.20521
C         -2.47354        0.01873       -1.77704
H         -1.54774       -0.41796       -2.18328
H         -3.21172        0.06133       -2.59344
H         -2.24577        1.04620       -1.45566
C         -3.29344       -2.24428       -1.06112
H         -4.03940       -2.25178       -1.87123
H         -2.38331       -2.72902       -1.44608
H         -3.68133       -2.85741       -0.23319
