26
Cyclopentadiene_H5_deriv1_Int1_Sub18.log	Energy: -1065210.2857580
C          0.02833       -1.00437        1.35397
C         -1.00453       -0.50453        2.33082
C         -0.65060       -1.41013        0.19235
H         -1.00791       -1.15448        3.22579
H         -0.79735        0.51796        2.69058
C         -2.29439       -0.58446        1.58263
Cl        -0.13495       -2.54620       -0.97594
C         -2.08269       -1.10826        0.36041
H         -3.25063       -0.21721        1.95342
Cl        -3.21712       -1.35061       -0.89021
O          2.00929       -0.42402       -0.69301
C          3.00754       -0.48038        0.14548
O          2.95065       -0.13328        1.31294
C          4.26124       -1.03431       -0.48820
H          4.04240       -1.98722       -0.99025
H          4.61851       -0.33500       -1.25838
H          5.03436       -1.17050        0.27697
H          1.01367       -1.35472        1.66459
Pd         0.39760        0.51464       -0.06237
O          0.58841        2.49398       -0.85279
C         -0.52275        2.77522       -0.32980
O         -1.11799        1.85821        0.32980
C         -1.15085        4.11593       -0.49487
H         -0.37720        4.88246       -0.62653
H         -1.77805        4.09822       -1.39968
H         -1.79289        4.34544        0.36477
