30
Cyclopentadiene_H5_Int1_Sub32.log	Energy: -560388.5264102
C         -0.08463       -1.17682        1.37487
C         -1.26641       -0.83130        2.23630
C         -0.56156       -1.64208        0.14247
H         -1.25187       -1.47303        3.13761
H         -1.23205        0.21025        2.60248
C         -2.44306       -1.09047        1.35712
H          0.03305       -2.20612       -0.57754
C         -2.02763       -1.55597        0.15346
H         -3.47829       -0.87579        1.61874
O         -2.83028       -1.85167       -0.87652
O          1.89094       -0.58558       -0.75977
C          2.92006       -0.66254        0.04243
O          2.90664       -0.35946        1.22178
C          4.16041       -1.16834       -0.65743
H          4.94229       -1.37989        0.08139
H          3.93310       -2.06641       -1.24837
H          4.51568       -0.39798       -1.35811
H          0.91842       -1.35114        1.77199
Pd         0.28921        0.34556       -0.07340
O          0.45603        2.36183       -0.78684
C         -0.65471        2.60519       -0.24342
O         -1.24361        1.64929        0.36240
C         -1.25866        3.96772       -0.26786
H         -0.92307        4.51502       -1.15739
H         -2.35339        3.90072       -0.23436
H         -0.91920        4.51616        0.62455
C         -2.22864       -2.15826       -2.10858
H         -1.55081       -1.35349       -2.44262
H         -1.66599       -3.10710       -2.06773
H         -3.04037       -2.26490       -2.83891
