42
Cyclopentadiene_H5_Int1_Sub19.log	Energy: -635726.2340738
C          0.60782       -1.53893        0.36512
C         -0.80114       -1.29501        0.82680
C          0.60605       -1.52163       -1.03904
H         -1.17114       -2.18467        1.36891
H         -0.88578       -0.44845        1.52880
C         -1.57096       -1.06532       -0.44398
H          1.41660       -1.89626       -1.66711
C         -0.73971       -1.21919       -1.50503
C         -3.01507       -0.69112       -0.48516
H         -1.01879       -1.10265       -2.55296
O          3.25535       -0.61899       -0.53760
C          3.88722       -1.10216        0.49846
O          3.42353       -1.18847        1.62145
C          5.29164       -1.54747        0.15933
H          5.71757       -2.10404        1.00245
H          5.29392       -2.16192       -0.75158
H          5.90946       -0.66002       -0.04430
H          1.37525       -1.98856        0.99974
Pd         1.53100        0.28274       -0.20685
O          1.98371        2.39088       -0.08222
C          0.75270        2.60467        0.06135
O         -0.03512        1.59980        0.06510
C          0.20283        3.98543        0.19149
H          0.97645        4.66954        0.56062
H         -0.12463        4.32855       -0.80213
H         -0.67124        3.98463        0.85552
H         -3.30949       -0.64678       -1.54950
C         -3.26874        0.69987        0.11911
H         -2.62671        1.44011       -0.38019
H         -2.95461        0.69227        1.17804
C         -4.74114        1.08172        0.03104
H         -4.90119        2.07033        0.49098
H         -5.02620        1.18595       -1.03167
C         -5.63405        0.03665        0.69100
H         -6.69564        0.31043        0.58031
H         -5.42932        0.02032        1.77699
C         -5.38129       -1.35228        0.11491
H         -5.69799       -1.37100       -0.94361
H         -5.99727       -2.10387        0.63445
C         -3.90822       -1.73545        0.20042
H         -3.61516       -1.81753        1.26280
H         -3.73758       -2.72654       -0.25046
