35
Cyclopentadiene_H5_Int1_Sub29.log	Energy: -562526.0706524
C          0.00164       -1.14372        1.44315
C         -0.92803       -0.54009        2.45755
C         -0.74221       -1.42464        0.28836
H         -0.98064       -1.19363        3.34848
H         -0.58768        0.44516        2.82205
C         -2.22959       -0.45912        1.72894
H         -0.40989       -2.08656       -0.51419
C         -2.12607       -0.96617        0.47918
H         -3.12632        0.00504        2.14386
C         -3.16737       -0.98259       -0.60082
O          1.80098       -0.97593       -0.86931
C          2.88262       -1.25220       -0.19004
O          3.08222       -0.91652        0.96345
C          3.88694       -2.04021       -0.99898
H          4.69597       -2.38914       -0.34656
H          3.40027       -2.88869       -1.49964
H          4.30205       -1.39185       -1.78505
H          0.96926       -1.57764        1.70471
Pd         0.54173        0.29517       -0.03645
O          1.06999        2.22779       -0.81867
C          0.10125        2.71075       -0.17668
O         -0.61052        1.91370        0.52306
C         -0.22963        4.16434       -0.21885
H          0.48669        4.70242       -0.85024
H         -1.24952        4.29327       -0.60948
H         -0.21545        4.57144        0.80244
H         -4.10898       -0.63513       -0.14278
C         -2.78795        0.00177       -1.70957
H         -3.57311        0.04745       -2.48008
H         -2.63512        1.01140       -1.30108
H         -1.85050       -0.30181       -2.20420
C         -3.39654       -2.38890       -1.15189
H         -3.68300       -3.09173       -0.35524
H         -4.19651       -2.38481       -1.90800
H         -2.48866       -2.78043       -1.63844
