30
Cyclopentadiene_H5_deriv1_Int1_Sub24.log	Energy: -848705.1211812
C          0.17720       -1.17189        1.30208
C         -0.78983       -0.83849        2.41005
C         -0.58459       -1.52189        0.17379
H         -0.65683       -1.56622        3.23232
H         -0.61011        0.15775        2.84991
C         -2.13384       -0.93996        1.76888
Cl        -0.10865       -2.55138       -1.11348
C         -2.01771       -1.32985        0.48208
H         -3.07480       -0.67607        2.25069
O         -3.00362       -1.53242       -0.39894
O          2.00010       -0.36245       -0.71170
C          3.02950       -0.15167        0.06407
O          2.95443        0.35311        1.17106
C          4.33181       -0.59452       -0.55626
H          4.23387       -1.60586       -0.97450
H          4.58070        0.08098       -1.38828
H          5.13033       -0.56085        0.19421
H          1.19221       -1.51918        1.49522
Pd         0.34654        0.45637       -0.01655
O          0.34031        2.45078       -0.80949
C         -0.75923        2.64593       -0.22804
O         -1.26001        1.68160        0.44282
C         -1.48442        3.94374       -0.33939
H         -0.76882        4.76507       -0.46981
H         -2.13227        3.90837       -1.22913
H         -2.11641        4.10738        0.54236
C         -2.96888       -0.70163       -1.54602
H         -3.02941        0.36001       -1.25589
H         -2.05253       -0.86422       -2.13703
H         -3.83935       -0.96994       -2.15726
