26
Cyclopentadiene_H5_Int1_Sub10.log	Energy: -776890.1664733
C         -0.57687        1.22615        1.05831
C          0.54166        1.86378        1.84050
C         -0.51805        1.75674       -0.24338
H          0.11917        2.48036        2.65609
H          1.21100        1.13106        2.32269
C          1.25600        2.70423        0.83206
Cl        -1.79848        1.84399       -1.38149
C          0.63942        2.64453       -0.36423
H          2.17351        3.25373        1.04693
H          0.92724        3.13634       -1.29250
O         -1.55612       -1.03293       -0.50217
C         -2.24225       -1.52141        0.49373
O         -1.91607       -1.44728        1.66613
C         -3.51527       -2.19457        0.03678
H         -4.10309       -1.50376       -0.58430
H         -3.26569       -3.06319       -0.58990
H         -4.09763       -2.51720        0.90773
H         -1.46043        0.79259        1.52962
Pd         0.23979       -0.33745       -0.09454
O          1.55801       -1.94295       -0.61892
C          2.52859       -1.21252       -0.28549
O          2.27208       -0.03756        0.14128
C          3.93856       -1.67987       -0.41196
H          3.98847       -2.76800       -0.28079
H          4.29798       -1.43880       -1.42439
H          4.57937       -1.16494        0.31463
