26
Cyclopentadiene_H5_deriv1_Int1_Sub10.log	Energy: -1065212.4160209
C         -0.02202       -1.26507        0.86303
C         -1.37755       -1.12422        1.50734
C         -0.24097       -1.56000       -0.49713
H         -1.53203       -1.92399        2.25397
H         -1.52676       -0.16401        2.02739
C         -2.31882       -1.27569        0.35528
Cl         0.84614       -2.34833       -1.56276
C         -1.66752       -1.52927       -0.80014
Cl        -3.99992       -1.09239        0.54721
H         -2.09730       -1.66816       -1.78988
O          2.32008       -0.00984       -0.33053
C          3.03229       -0.14482        0.75388
O          2.58716       -0.10233        1.88825
C          4.49501       -0.37426        0.45436
H          4.60844       -1.22495       -0.23264
H          4.90838        0.51005       -0.05219
H          5.04014       -0.55969        1.38718
H          0.87316       -1.52477        1.43071
Pd         0.44028        0.53429       -0.11159
O          0.43519        2.64177       -0.51986
C         -0.80984        2.63977       -0.33112
O         -1.36568        1.53025       -0.03044
C         -1.62851        3.87585       -0.48266
H         -1.02815        4.75941       -0.23262
H         -1.94356        3.96011       -1.53432
H         -2.52747        3.81828        0.14371
