29
Cyclopentadiene_H5_Int1_Sub14.log	Energy: -513225.9009523
C         -0.29794        1.61203        0.79751
C          0.87434        1.91556        1.69247
C          0.03626        1.98479       -0.52268
H          0.60056        2.69876        2.42416
H          1.21051        1.04772        2.28632
C          1.92145        2.39067        0.73955
C         -0.89324        2.28451       -1.65039
C          1.43603        2.42321       -0.51773
H          2.94380        2.63043        1.03586
H          1.98155        2.71108       -1.41738
O         -1.89624       -0.30283       -0.59087
C         -2.59997       -0.79094        0.39638
O         -2.14827       -1.02371        1.50354
C         -4.04098       -1.04682        0.02474
H         -4.61283       -1.31849        0.91980
H         -4.47829       -0.16087       -0.45696
H         -4.08506       -1.86946       -0.70448
H         -1.31852        1.54640        1.17897
Pd         0.03637       -0.22711       -0.16002
O          0.80514       -2.19653       -0.57213
C          1.93264       -1.79312       -0.18547
O          2.04253       -0.57240        0.17082
C          3.10695       -2.70933       -0.10396
H          3.02155       -3.50111       -0.85864
H          4.04159       -2.14760       -0.22543
H          3.11246       -3.18151        0.89071
H         -0.44409        2.00730       -2.61549
H         -1.07978        3.37164       -1.67420
H         -1.84498        1.75310       -1.53562
