36
Furan_H7_Int1_Sub20.log	Energy: -609706.4541144
C         -0.04371       -1.52128        0.68512
C          0.09308       -1.45261       -0.71434
C          1.25351       -1.22389        1.20980
O          1.39372       -1.18759       -1.02099
H         -0.50622       -1.88826       -1.51262
C          2.07474       -1.01795        0.13754
H          1.52523       -1.14320        2.25766
C          3.51445       -0.62607        0.01059
O         -2.61571       -0.65445       -0.68656
C         -3.33389       -1.22309        0.24322
O         -2.99087       -1.37462        1.40296
C         -4.67892       -1.68277       -0.27143
H         -5.30731       -0.80032       -0.46447
H         -4.56766       -2.21800       -1.22446
H         -5.16422       -2.32027        0.47696
H         -0.92551       -1.86626        1.23201
Pd        -0.97487        0.32327       -0.18720
O         -1.54017        2.39465       -0.10700
C         -0.33254        2.67385        0.10899
O          0.50232        1.70901        0.16404
C          0.13674        4.07974        0.27223
H          0.87972        4.13575        1.07899
H          0.62831        4.39901       -0.65954
H         -0.71128        4.74416        0.47592
C          4.10935       -0.42873        1.40363
H          5.16929       -0.14654        1.31979
H          3.58741        0.37192        1.94889
H          4.05373       -1.35121        2.00161
C          4.26661       -1.73932       -0.73390
H          3.83052       -1.91293       -1.72832
H          5.32190       -1.45555       -0.86614
H          4.23255       -2.68549       -0.17262
C          3.59790        0.68500       -0.78618
H          4.64853        1.00305       -0.86915
H          3.19491        0.55359       -1.80068
H          3.01583        1.47660       -0.29383
