24
Furan_H7_Int1_Sub18.log	Energy: -799418.8187840
C          0.17718       -1.60422        0.65032
C          0.31408       -1.52165       -0.74905
C          1.49946       -1.48598        1.18232
O          1.64323       -1.41637       -1.06283
H         -0.33031       -1.87433       -1.55310
C          2.31495       -1.36709        0.09688
H          1.80017       -1.46235        2.22522
Cl         3.98379       -1.14431       -0.00903
O         -2.28151       -0.38433       -0.67868
C         -3.04989       -0.90181        0.24081
O         -2.70447       -1.16282        1.38067
C         -4.45574       -1.14642       -0.25620
H         -4.96185       -0.17764       -0.38326
H         -4.43998       -1.63672       -1.23924
H         -5.00616       -1.75393        0.47172
H         -0.74291       -1.84323        1.19361
Pd        -0.51753        0.35721       -0.19149
O         -0.79892        2.47671       -0.06219
C          0.44171        2.58554        0.12762
O          1.13455        1.51302        0.14760
C          1.09851        3.91239        0.29256
H          2.04375        3.80671        0.83899
H          1.31426        4.32278       -0.70607
H          0.42079        4.60606        0.80620
