27
Furan_H7_Int1_Sub9.log	Energy: -722494.2645351
C         -0.48114       -1.29191        0.48072
C          0.01041       -0.88691        1.73293
C         -1.84624       -0.84157        0.46179
O         -0.98564       -0.28114        2.44088
H          0.86784       -1.22796        2.31119
C         -2.07343       -0.23835        1.65769
C         -2.79593       -0.94196       -0.68058
H         -2.94543        0.27276        2.05858
O          2.48390       -0.68731        0.32340
C          2.64530       -1.64813       -0.54724
O          1.78091       -2.06984       -1.29565
C          4.05304       -2.19555       -0.54234
H          4.72393       -1.45255       -0.99926
H          4.40248       -2.36180        0.48576
H          4.09048       -3.12573       -1.12131
H          0.02087       -1.94911       -0.23872
Pd         0.87007        0.44471        0.27270
O          1.49244        2.26756       -0.64455
C          0.33958        2.72589       -0.42264
O         -0.49306        1.96132        0.17322
C         -0.04724        4.11140       -0.80500
H         -1.11455        4.15011       -1.05732
H          0.12717        4.77509        0.05606
H          0.56912        4.45852       -1.64324
F         -2.93131       -2.20303       -1.09327
F         -2.37733       -0.22696       -1.72635
F         -4.00465       -0.48979       -0.33443
