40
Furan_H7_Int1_Sub19.log	Energy: -658256.1969568
C         -0.64470       -1.52409        0.83766
C         -0.35687       -1.48717       -0.54074
C          0.59137       -1.22960        1.49284
O          0.97309       -1.24119       -0.71079
H         -0.86988       -1.93974       -1.38828
C          1.52566       -1.05610        0.51152
H          0.75767       -1.12898        2.56193
C          2.96063       -0.68097        0.54555
O         -3.04615       -0.67212       -0.82451
C         -3.86543       -1.20678        0.03924
O         -3.64961       -1.32625        1.23298
C         -5.15308       -1.67127       -0.60232
H         -5.74675       -0.79027       -0.88907
H         -4.94665       -2.23768       -1.52086
H         -5.72318       -2.28050        0.10891
H         -1.58565       -1.84630        1.29200
Pd        -1.45634        0.30731       -0.18210
O         -2.00480        2.38517       -0.21748
C         -0.82451        2.65941        0.12101
O         -0.00865        1.68990        0.28012
C         -0.37590        4.06115        0.36061
H         -0.29718        4.22670        1.44593
H          0.62097        4.21529       -0.07406
H         -1.09843        4.77052       -0.05976
H          3.23321       -0.60748        1.61267
C          3.19535        0.69182       -0.10580
H          2.56139        1.44312        0.38739
H          2.85176        0.64129       -1.15344
C          4.66799        1.07827       -0.06250
H          4.81361        2.05009       -0.56097
H          4.97667        1.22144        0.98915
C          5.54885        0.01221       -0.70460
H          6.61142        0.29421       -0.63096
H          5.31626       -0.04742       -1.78320
C          5.31772       -1.35364       -0.06771
H          5.65771       -1.32746        0.98354
H          5.92690       -2.12232       -0.56961
C          3.84712       -1.75184       -0.10755
H          3.52315       -1.88268       -1.15448
H          3.69219       -2.72050        0.39413
