27
Furan_H6_Int1_Sub6.log	Energy: -535751.0300646
C          0.42153        1.52337        0.81616
C          0.45672        1.81466       -0.56687
O         -0.68616        2.09795        1.36989
C         -0.75374        2.55158       -0.82047
C          1.63688        1.74462       -1.48137
C         -1.38077        2.67629        0.37849
H         -1.09670        2.93288       -1.77919
H         -2.32811        3.12958        0.66223
O          1.60478       -1.11719       -0.36930
C          2.67859       -0.91209        0.33360
O          2.82566       -0.05287        1.18821
C          3.79044       -1.86866       -0.03726
H          3.46557       -2.90216        0.15087
H          4.00832       -1.78940       -1.11212
H          4.68805       -1.64211        0.54983
H          1.24301        1.23487        1.47764
Pd        -0.17735       -0.34205       -0.05126
O         -1.41653       -2.08600       -0.27217
C         -2.41525       -1.34752       -0.07010
O         -2.20438       -0.10312        0.12370
C         -3.80117       -1.89392       -0.01937
H         -4.01871       -2.20037        1.01556
H         -4.52690       -1.12459       -0.31149
H         -3.88275       -2.77818       -0.66371
H          1.43753        1.12382       -2.36595
H          2.51181        1.34727       -0.95518
H          1.87059        2.76269       -1.82988
