33
Furan_H6_Int1_Sub21.log	Energy: -585056.3375136
C         -0.03839       -1.54520        0.52441
C          0.04482       -1.61078       -0.87872
O          1.21380       -1.43655        1.03308
C          1.44253       -1.51202       -1.18918
H         -0.76142       -1.91207       -1.54634
C          2.09510       -1.39187        0.00311
H          1.89390       -1.50470       -2.17676
C          3.52746       -1.20186        0.36463
O         -2.54653       -0.34895       -0.60817
C         -3.25794       -0.91028        0.33069
O         -2.84779       -1.22927        1.43346
C         -4.69356       -1.12629       -0.09112
H         -5.20133       -0.15130       -0.14003
H         -4.74009       -1.56819       -1.09592
H         -5.20222       -1.76729        0.63853
H         -0.84673       -1.79791        1.21662
Pd        -0.74490        0.35585       -0.22075
O         -0.98600        2.49114       -0.18566
C          0.25656        2.58611       -0.01209
O          0.93567        1.50568        0.03850
C          0.93402        3.90356        0.15640
H          1.21346        4.02486        1.21404
H          1.85820        3.92775       -0.43683
H          0.26264        4.71928       -0.13628
H          3.80313       -2.06964        0.99356
C          4.41192       -1.20077       -0.87443
H          5.46926       -1.10980       -0.58717
H          4.29975       -2.12646       -1.45847
H          4.16799       -0.34878       -1.52838
C          3.71414        0.06224        1.20779
H          3.09417        0.02741        2.11423
H          4.76737        0.16262        1.50951
H          3.41404        0.95176        0.63550
