40
Furan_H6_Int1_Sub3.log	Energy: -658252.5400073
C          0.11536       -0.42325        1.70621
C         -0.66319       -1.02386        0.69058
O          0.90481       -1.37219        2.29029
C         -0.23572       -2.39867        0.66166
C         -1.91571       -0.49254        0.05920
C          0.69969       -2.52640        1.63834
H         -0.58256       -3.17979       -0.00978
H          1.31038       -3.36819        1.95767
O         -0.04143        1.85723       -0.27939
C         -0.23388        2.71093        0.68682
O          0.07708        2.54556        1.85408
C         -0.91501        3.97220        0.20420
H         -0.24539        4.50529       -0.48670
H         -1.82598        3.72170       -0.35813
H         -1.15686        4.61529        1.05847
H         -0.01575        0.51668        2.25199
Pd         1.10544        0.26360       -0.05976
O          2.76143        0.67288       -1.36542
C          3.23166       -0.45132       -1.04870
O          2.56012       -1.16884       -0.23412
C          4.54408       -0.92925       -1.56959
H          5.33740       -0.58077       -0.89025
H          4.56897       -2.02582       -1.59636
H          4.73317       -0.50586       -2.56396
H         -1.95309        0.58964        0.25133
C         -3.14516       -1.13331        0.72049
H         -3.11690       -0.95640        1.80770
H         -3.10379       -2.22838        0.57983
C         -4.43613       -0.58907        0.11949
H         -5.30431       -1.07912        0.58883
H         -4.51931        0.48623        0.35912
C         -4.47065       -0.77145       -1.39384
H         -5.39341       -0.33732       -1.81116
H         -4.50249       -1.85136       -1.62762
C         -3.24429       -0.15184       -2.05466
H         -3.26847        0.94419       -1.91849
H         -3.26022       -0.32818       -3.14198
C         -1.94980       -0.68993       -1.45781
H         -1.85501       -1.76659       -1.68962
H         -1.08023       -0.18779       -1.90998
