27
Imidazole_H6_Int1_Sub14.log	Energy: -533376.4170873
C         -0.00458       -1.67791        0.55458
C          0.14246       -1.70867       -0.85412
N          1.27604       -1.85679        1.02087
H         -0.65445       -1.81654       -1.58982
N          1.46494       -1.88042       -1.18835
C          2.11738       -1.93235       -0.05414
H          1.55616       -1.79392        1.99091
C          3.59064       -2.00461        0.09019
O         -2.13663        0.09515       -0.64263
C         -2.98495       -0.31882        0.25539
O         -2.69475       -0.74598        1.36165
C         -4.41747       -0.20858       -0.21473
H         -5.08035       -0.72836        0.48698
H         -4.69615        0.85466       -0.26554
H         -4.52387       -0.62101       -1.22752
H         -0.89875       -1.74940        1.18202
Pd        -0.23788        0.36473       -0.17965
O          0.04495        2.50049       -0.08625
C          1.26431        2.28142        0.12866
O          1.65107        1.06558        0.19933
C          2.24959        3.39272        0.26361
H          1.76448        4.27711        0.69533
H          3.10551        3.07620        0.87277
H          2.61662        3.65803       -0.73998
H          3.98913       -1.00229        0.31244
H          4.02605       -2.34753       -0.85554
H          3.88973       -2.68543        0.90048
