36
Imidazole_H6_deriv1_Int1_Sub14.log	Energy: -607325.2527997
C         -0.10947       -1.50032        0.54223
C          0.03456       -1.50055       -0.86764
N          1.16621       -1.25686        0.99814
H         -0.69634       -1.84910       -1.59723
N          1.33671       -1.24420       -1.20989
C          1.98012       -1.06789       -0.07961
H          1.41628       -1.08647        1.96265
C          3.43705       -0.70237        0.02613
O         -2.69500       -0.48418       -0.63653
C         -3.36741       -1.14878        0.26016
O         -2.95505       -1.46744        1.36402
C         -4.76274       -1.49372       -0.20851
H         -5.22536       -2.20098        0.48990
H         -5.36340       -0.57278       -0.25117
H         -4.73641       -1.91178       -1.22422
H         -0.92806       -1.85143        1.17836
Pd        -0.97457        0.36258       -0.17420
O         -1.35936        2.48851       -0.10137
C         -0.13468        2.65538        0.12309
O          0.60580        1.61610        0.20882
C          0.46629        4.01419        0.25220
H         -0.29480        4.73827        0.56741
H          1.30678        3.99452        0.95788
H          0.85391        4.31992       -0.73201
C          3.69977        0.47222       -0.92368
H          4.76450        0.75032       -0.89129
H          3.43423        0.19684       -1.95340
H          3.08908        1.34072       -0.63812
C          3.79490       -0.30328        1.45799
H          3.65697       -1.13634        2.16715
H          4.85418       -0.01283        1.51039
H          3.19514        0.55803        1.79217
C          4.26121       -1.92275       -0.40929
H          3.98658       -2.22586       -1.42965
H          5.33476       -1.67902       -0.39216
H          4.09282       -2.77994        0.26100
