40
Imidazole_H6_Int1_Sub3.log	Energy: -655874.5774190
C          0.07806       -0.13020        1.77803
C         -0.71866       -0.84881        0.84317
N          0.78269       -1.11525        2.44870
C         -1.93356       -0.39070        0.09896
N         -0.43052       -2.19204        0.93676
C          0.46861       -2.30118        1.87759
H          1.51837       -0.94940        3.12317
H          0.94319       -3.23342        2.18709
O          0.05108        1.87768       -0.43896
C          0.02870        2.85893        0.41668
O          0.46350        2.81494        1.55699
C         -0.61902        4.10118       -0.15205
H         -0.69629        4.87073        0.62487
H         -0.01494        4.47575       -0.99140
H         -1.61408        3.86034       -0.55292
H         -0.00770        0.89063        2.16261
Pd         1.10265        0.24245       -0.07951
O          2.74085        0.33396       -1.47609
C          3.11626       -0.78234       -1.03498
O          2.43478       -1.31102       -0.09222
C          4.29349       -1.49811       -1.60485
H          5.02737       -0.77650       -1.98489
H          4.74261       -2.15811       -0.85215
H          3.95061       -2.11769       -2.44796
H         -1.92815        0.70966        0.09398
C         -3.19178       -0.87279        0.83668
H         -3.18983       -0.48424        1.86846
H         -3.15074       -1.97315        0.91161
C         -4.45935       -0.44668        0.10570
H         -5.34569       -0.82686        0.63904
H         -4.53495        0.65574        0.12313
C         -4.45771       -0.92675       -1.34121
H         -5.36545       -0.58040       -1.86142
H         -4.49166       -2.03121       -1.35522
C         -3.20836       -0.45521       -2.07691
H         -3.22781        0.64651       -2.15999
H         -3.19918       -0.84255       -3.10836
C         -1.93606       -0.87565       -1.35235
H         -1.83923       -1.97477       -1.35400
H         -1.04919       -0.47719       -1.87122
