45
Imidazole_H6_deriv1_Int1_Sub5.log	Energy: -681279.3023942
C          0.13815       -0.99299       -1.04577
C         -0.06565       -1.45193        0.28697
N         -1.13846       -0.66372       -1.47911
C          0.85817       -2.25485        1.15519
N         -1.38470       -1.31656        0.61828
C         -1.99207       -0.81935       -0.43899
H         -1.34920       -0.19298       -2.34863
C         -3.45746       -0.48134       -0.50026
O          2.71024       -0.02532        0.07323
C          3.33532       -0.26117       -1.04510
O          2.82556       -0.25932       -2.15439
C          4.80362       -0.55369       -0.83215
H          5.26487       -0.85528       -1.77986
H          5.30108        0.34841       -0.44638
H          4.93034       -1.34086       -0.07537
H          0.95923       -1.16535       -1.74691
Pd         0.86754        0.68947        0.04732
O          1.03812        2.74385        0.72122
C         -0.21018        2.83053        0.62123
O         -0.85261        1.80431        0.20874
C         -0.94949        4.07013        0.99949
H         -0.28041        4.93838        0.96633
H         -1.81353        4.21528        0.33794
H         -1.32549        3.95373        2.02777
C         -3.84634        0.20894        0.81088
H         -4.92329        0.43687        0.80903
H         -3.61991       -0.43989        1.66762
H         -3.27757        1.14142        0.93380
C         -3.74908        0.44351       -1.68269
H         -3.53857       -0.04093       -2.65070
H         -4.81466        0.71534       -1.68991
H         -3.16156        1.37174       -1.60919
C         -4.23288       -1.79965       -0.64877
H         -5.31571       -1.60078       -0.66179
H         -3.96767       -2.31769       -1.58349
H         -4.01171       -2.47285        0.19196
H          1.87504       -2.12806        0.75771
C          0.82956       -1.76107        2.59702
H          1.47603       -2.38621        3.23085
H          1.18714       -0.72254        2.66343
H         -0.19478       -1.79788        2.99669
C          0.45780       -3.72851        1.05249
H          0.50187       -4.08677        0.01266
H          1.13531       -4.35120        1.65639
H         -0.56880       -3.87492        1.42136
