52
Imidazole_H6_deriv1_Int1_Sub3.log	Energy: -754479.7529042
C         -0.05400        0.14638        1.48078
C          0.35768        0.96216        0.38816
N         -1.38010        0.50604        1.67714
C          1.74465        1.27203       -0.07546
N         -0.70643        1.69135       -0.06286
C         -1.73139        1.37854        0.70292
H         -2.01828        0.03787        2.30600
C         -3.12058        1.93253        0.53418
O          1.85134       -1.78521        0.25053
C          2.23701       -2.20416        1.42172
O          1.56477       -2.17976        2.44046
C          3.65338       -2.73438        1.40240
H          3.96616       -3.00025        2.41892
H          3.70357       -3.61952        0.75148
H          4.33369       -1.98242        0.97725
H          0.53017       -0.36296        2.25260
Pd        -0.03863       -1.31086       -0.07998
O         -0.78420       -2.84336       -1.42397
C         -1.87951       -2.23070       -1.43771
O         -1.98482       -1.17118       -0.72879
C         -3.02841       -2.68357       -2.27526
H         -2.93121       -3.75005       -2.51148
H         -3.97750       -2.48039       -1.76221
H         -3.02252       -2.11200       -3.21631
C         -3.45922        1.93017       -0.96007
H         -4.45891        2.36303       -1.11836
H         -2.72161        2.51971       -1.52102
H         -3.44092        0.90387       -1.35315
C         -4.13692        1.08503        1.30032
H         -3.96098        1.10889        2.38866
H         -5.15075        1.47757        1.13464
H         -4.11639        0.03980        0.95483
C         -3.11467        3.37334        1.06801
H         -4.10642        3.83094        0.92920
H         -2.87027        3.40215        2.14123
H         -2.37179        3.97966        0.53006
H          2.41928        0.51754        0.35657
C          2.15550        2.65740        0.44631
H          2.09434        2.67389        1.54695
H          1.42531        3.39791        0.07676
C          3.55812        3.03023       -0.01868
H          3.81855        4.03754        0.34485
H          4.28767        2.33671        0.43744
C          3.68042        2.96016       -1.53669
H          4.70937        3.20015       -1.85017
H          3.02876        3.73066       -1.98720
C          3.26892        1.58867       -2.06049
H          3.98571        0.82956       -1.69860
H          3.32263        1.56429       -3.16076
C          1.86815        1.20765       -1.59944
H          1.12056        1.88956       -2.03940
H          1.61319        0.19155       -1.94134
