36
Imidazole_H6_Int1_Sub12.log	Energy: -607325.2549106
C         -0.10906       -1.50009        0.54277
C          0.03483       -1.50060       -0.86712
N          1.16655       -1.25640        0.99857
H         -0.69596       -1.84963       -1.59658
N          1.33703       -1.24447       -1.20951
C          1.98039       -1.06774       -0.07932
H          1.41671       -1.08594        1.96305
C          3.43730       -0.70214        0.02610
O         -2.69485       -0.48477       -0.63675
C         -3.36725       -1.14904        0.26014
O         -2.95498       -1.46710        1.36422
C         -4.76247       -1.49451       -0.20848
H         -5.22496       -2.20158        0.49020
H         -5.36336       -0.57373       -0.25158
H         -4.73598       -1.91301       -1.22401
H         -0.92782       -1.85061        1.17904
Pd        -0.97460        0.36248       -0.17439
O         -1.35992        2.48827       -0.10164
C         -0.13534        2.65545        0.12306
O          0.60537        1.61634        0.20898
C          0.46529        4.01440        0.25231
H         -0.29607        4.73829        0.56734
H          1.30557        3.99492        0.95824
H          0.85303        4.32026       -0.73180
C          3.69883        0.47501       -0.92094
H          4.76348        0.75341       -0.88874
H          3.43256        0.20208       -1.95114
H          3.08800        1.34252       -0.63271
C          3.79639       -0.30681        1.45863
H          3.65851       -1.14154        2.16584
H          4.85584       -0.01700        1.51095
H          3.19744        0.55406        1.79544
C          4.26122       -1.92117       -0.41339
H          5.33470       -1.67713       -0.39710
H          4.09395       -2.78003        0.25502
H          3.98524       -2.22181       -1.43410
