45
Imidazole_H6_deriv1_Int1_Sub12.log	Energy: -681270.7400777
C         -0.38339       -1.33576        0.55676
C         -0.23550       -1.29972       -0.85159
N          0.79787       -0.80854        1.02063
H         -0.85923       -1.80707       -1.58730
N          0.97726       -0.75114       -1.18373
C          1.56056       -0.43674       -0.04953
H          0.99934       -0.59522        1.98772
C          2.88601        0.26737        0.09055
O         -3.12542       -0.92140       -0.64078
C         -3.63795       -1.71245        0.25885
O         -3.17006       -1.92474        1.36615
C         -4.92023       -2.36079       -0.21120
H         -5.21729       -3.14901        0.49055
H         -5.70992       -1.59617       -0.26120
H         -4.79798       -2.76834       -1.22417
H         -1.10941       -1.85710        1.18834
Pd        -1.63783        0.28907       -0.18043
O         -2.48592        2.27660       -0.11722
C         -1.32920        2.71373        0.10411
O         -0.37579        1.86591        0.19365
C         -1.04642        4.17299        0.22517
H         -1.95026        4.71092        0.53595
H         -0.22367        4.34577        0.93090
H         -0.73533        4.55162       -0.76086
C          2.94101        1.34221       -1.00309
H          3.91509        1.85265       -1.00000
H          2.75989        0.91458       -1.99591
H          2.15347        2.08692       -0.81851
C          2.93192        0.97823        1.45040
H          3.01277        0.28347        2.30172
H          3.79918        1.64929        1.50190
H          2.02892        1.59397        1.57906
C          4.05487       -0.79490       -0.05567
H          4.87622       -2.11968       -1.56039
C          4.16745       -1.27883       -1.50483
H          3.19641       -1.61684       -1.89450
H          4.54351       -0.48854       -2.17027
C          5.39431       -0.17805        0.35935
H          5.44145        0.03694        1.43693
H          6.20859       -0.88308        0.13122
H          5.60701        0.75327       -0.18674
C          3.78891       -2.01506        0.83372
H          4.65511       -2.69363        0.80407
H          3.63028       -1.74096        1.88845
H          2.91349       -2.58768        0.49227
