33
Imidazole_H6_Int1_Sub5.log	Energy: -582674.2081732
C         -0.76844        0.70437       -1.34147
C         -0.96022        1.41389       -0.12298
N          0.05369        1.53060       -2.08846
C         -2.02700        1.22928        0.91858
N         -0.22265        2.57629       -0.15287
C          0.37110        2.59533       -1.31565
H          0.46881        1.28894       -2.97903
H          1.06336        3.36738       -1.65454
O         -0.97399       -1.63059        0.49710
C         -1.54109       -2.35125       -0.42791
O         -1.39571       -2.19906       -1.63082
C         -2.43211       -3.42854        0.14736
H         -2.97541       -3.93344       -0.65994
H         -1.81393       -4.15688        0.69273
H         -3.13578       -2.99531        0.87226
H         -1.32708       -0.12005       -1.79390
Pd         0.48630       -0.38171        0.03046
O          2.26664       -1.31137        0.80524
C          2.90859       -0.30570        0.40682
O          2.25947        0.61605       -0.19424
C          4.37209       -0.15943        0.65071
H          4.85137       -1.14599        0.67828
H          4.82712        0.47888       -0.11695
H          4.51626        0.32117        1.63077
H         -2.41056        0.20439        0.81664
C         -1.46402        1.40496        2.32421
H         -2.26521        1.31502        3.07281
H         -0.70506        0.63896        2.54353
H         -0.99452        2.39418        2.43094
C         -3.15836        2.21960        0.63383
H         -3.57792        2.07362       -0.37327
H         -3.97181        2.08956        1.36376
H         -2.79142        3.25480        0.70501
