40
Indole_H13_Int1_Sub5.log	Energy: -668948.2858004
C         -0.03952       -0.83181        1.37787
C          0.34414       -1.29137        0.08557
N          1.05670       -0.33815        2.03118
C          1.77378       -0.99752       -0.00954
C         -0.37595       -2.37323       -0.68858
C          2.16021       -0.38934        1.20705
H          1.00756        0.18165        2.89655
C          2.73833       -1.19616       -1.00536
C          3.46319        0.04862        1.44172
C          4.04279       -0.77916       -0.77349
H          2.47318       -1.66444       -1.95385
C          4.39797       -0.15956        0.43596
H          3.73820        0.53434        2.38001
H          4.80268       -0.92868       -1.54323
H          5.42948        0.16619        0.58882
O         -2.45498       -0.24822       -0.40060
C         -3.25796       -0.43326        0.60683
O         -2.96055       -0.29701        1.78350
C         -4.64521       -0.84734        0.17016
H         -5.23099       -1.16668        1.04021
H         -5.13937        0.00996       -0.31111
H         -4.59054       -1.65128       -0.57706
H         -0.98256       -1.00324        1.90458
Pd        -0.71012        0.64381       -0.11501
O         -1.06840        2.66179       -0.76818
C          0.14049        2.91140       -0.51759
O          0.86195        1.97051       -0.04952
C          0.73454        4.25301       -0.78680
H         -0.01012        5.03854       -0.60533
H          1.62887        4.40711       -0.17053
H          1.02742        4.29987       -1.84705
H         -1.40305       -2.40268       -0.29789
C         -0.47491       -2.09532       -2.18530
H         -1.03434       -2.90244       -2.68230
H         -1.00676       -1.15227       -2.37296
H          0.51390       -2.03850       -2.66392
C          0.27912       -3.72580       -0.40026
H          0.31448       -3.93118        0.68031
H         -0.29065       -4.53531       -0.88198
H          1.31089       -3.76495       -0.78193
