47
Indole_H13_Int1_Sub19.log	Energy: -742149.9531329
C          0.94733       -1.05795       -1.21627
C          1.26503       -1.71990       -0.00184
N         -0.39647       -0.84374       -1.25597
C          0.00590       -1.91389        0.69411
H          2.18443       -2.27786        0.17308
C         -0.99530       -1.31407       -0.09885
H         -0.85231       -0.26034       -1.94340
C         -0.33911       -2.51217        1.91041
C         -2.33944       -1.23760        0.28984
C         -1.67092       -2.47951        2.29826
H          0.42162       -2.98424        2.53544
C         -2.64478       -1.84754        1.50560
C         -3.32912       -0.47404       -0.55295
H         -1.97319       -2.94286        3.23992
H         -3.67687       -1.83407        1.86097
O          3.76412       -0.32841       -0.04428
C          4.23712       -0.38254       -1.25642
O          3.58771       -0.23342       -2.27943
C          5.72616       -0.64472       -1.28211
H          6.04628       -0.87387       -2.30540
H          6.25251        0.25356       -0.92577
H          5.98648       -1.46602       -0.60034
H          1.60810       -0.87124       -2.06807
Pd         1.92372        0.31583        0.26876
O          2.13533        2.33580        1.00767
C          0.88496        2.36955        1.13543
O          0.21849        1.33629        0.79100
C          0.18316        3.55789        1.70238
H          0.73706        4.47432        1.46310
H         -0.84707        3.61038        1.32802
H          0.14796        3.45357        2.79787
H         -3.07334       -0.66422       -1.61494
C         -3.19114        1.03967       -0.31441
H         -2.14098        1.35135       -0.43132
H         -3.44001        1.23928        0.74311
C         -4.11494        1.83846       -1.22593
H         -4.02169        2.91520       -1.01035
H         -3.79366        1.70615       -2.27564
C         -5.56565        1.38953       -1.08609
H         -6.20960        1.94162       -1.78944
H         -5.92480        1.64283       -0.07213
C         -5.70711       -0.11351       -1.30287
H         -5.46156       -0.35567       -2.35292
H         -6.75246       -0.42688       -1.15140
C         -4.78529       -0.90198       -0.37856
H         -5.09405       -0.72400        0.66665
H         -4.88468       -1.98501       -0.55617
