34
Indole_H13_Int1_Sub6.log	Energy: -619648.7152469
C         -0.05612       -1.17078        1.22486
C          0.19851       -1.51766       -0.13208
N          1.12161       -0.83008        1.83196
C          1.63186       -1.31800       -0.31291
C         -0.61794       -2.44585       -0.97874
C          2.15639       -0.87085        0.91915
H          1.17898       -0.39358        2.74164
C          2.48279       -1.49689       -1.40710
C          3.50657       -0.56131        1.07594
C          3.83288       -1.20489       -1.25486
H          2.08990       -1.85093       -2.36290
C          4.33336       -0.73834       -0.02756
H          3.90132       -0.19710        2.02639
H          4.51537       -1.33443       -2.09739
H          5.39794       -0.51006        0.06280
O         -2.46786       -0.16473       -0.62796
C         -3.27737       -0.77896        0.18090
O         -2.99497       -1.20708        1.28974
C         -4.66046       -0.94260       -0.40972
H         -5.30500       -1.48406        0.29253
H         -5.08716        0.04628       -0.63119
H         -4.59593       -1.48712       -1.36302
H         -0.98542       -1.34882        1.77430
Pd        -0.68757        0.50004       -0.09966
O         -0.90052        2.61695       -0.44157
C          0.30571        2.74892       -0.10735
O          0.94777        1.70477        0.24458
C          0.99038        4.07372       -0.14977
H          0.27791        4.87514        0.08339
H          1.84138        4.08826        0.54247
H          1.36909        4.23901       -1.17027
H         -0.78122       -2.04814       -1.98998
H         -1.59313       -2.64036       -0.51897
H         -0.08186       -3.40397       -1.07207
