35
Indolizine_H13_Int1_Sub32.log	Energy: -666797.8293867
C         -0.03949       -1.00843       -0.98404
C          0.59502       -0.36746       -2.11002
N          0.99721       -1.11193       -0.00514
C          1.87175        0.00620       -1.77451
H          0.09091       -0.19187       -3.05924
C          2.11782       -0.46822       -0.45414
C          0.89603       -1.68796        1.21737
H          2.57552        0.59094       -2.36105
C          3.23430       -0.38190        0.40682
C          1.97570       -1.62483        2.06250
H         -0.08405       -2.12517        1.43674
C          3.15386       -0.96353        1.65684
O          4.34087        0.28140        0.00015
H          1.90447       -2.07988        3.05053
H          4.01621       -0.88957        2.32250
O         -2.85027       -0.69969       -0.55290
C         -2.95811       -1.77274        0.15965
O         -2.08271       -2.24547        0.87887
C         -4.31614       -2.42891        0.04152
H         -4.29174       -3.42939        0.48972
H         -5.05627       -1.81032        0.57140
H         -4.63072       -2.48112       -1.00987
H         -0.68135       -1.88812       -1.06835
Pd        -1.27935        0.49213       -0.29814
O         -2.01258        2.36646        0.55144
C         -0.82305        2.76429        0.53635
O          0.07901        1.97311        0.09512
C         -0.44338        4.13717        0.98794
H         -0.35714        4.78857        0.10461
H         -1.21390        4.54584        1.65280
H          0.53455        4.11490        1.48651
C          5.21679       -0.45293       -0.82918
H          5.62528       -1.33108       -0.29951
H          4.71573       -0.79813       -1.75009
H          6.04096        0.21904       -1.10025
