50
Indole_H13_deriv1_Int1_Sub3.log	Energy: -766797.0211609
C         -0.07523       -0.02109        1.68873
C          0.27466        0.69641        0.50525
N         -1.22263        0.48513        2.21349
C         -0.81645        1.67313        0.32000
C          1.74018        0.82902        0.13562
C         -1.71245        1.48583        1.40288
H         -1.73253        0.06703        2.97909
C         -1.14231        2.63571       -0.66200
C         -2.88841        2.21365        1.56869
C         -2.31317        3.37363       -0.47770
C         -0.33401        2.86593       -1.90122
C         -3.16945        3.17629        0.61282
H         -3.55628        2.02747        2.41180
H         -2.57689        4.12375       -1.22715
H         -4.07594        3.77969        0.69979
O          1.21416       -2.17226       -0.23781
C          1.97976       -2.53338        0.74532
O          1.83923       -2.22789        1.92067
C          3.14272       -3.38277        0.28074
H          3.70873       -3.74679        1.14617
H          2.77952       -4.22459       -0.32490
H          3.79866       -2.77851       -0.36414
H          0.57611       -0.71340        2.23461
Pd        -0.53625       -1.26277       -0.08970
O         -1.83227       -2.66110       -1.12311
C         -2.77462       -1.85182       -0.92665
O         -2.52155       -0.77826       -0.28481
C         -4.14903       -2.10279       -1.45063
H         -4.36707       -3.17831       -1.43856
H         -4.89053       -1.54305       -0.86718
H         -4.19390       -1.75770       -2.49516
H         -0.23497        1.93769       -2.48418
H          0.68298        3.21855       -1.67522
H         -0.81507        3.61815       -2.54040
H          2.24475        0.04060        0.71800
C          2.28966        2.16298        0.66366
H          2.01831        2.27997        1.72547
H          1.80745        3.00025        0.13014
C          3.80232        2.24425        0.49009
H          4.16909        3.22472        0.83496
H          4.27837        1.48832        1.14023
C          4.21927        1.99337       -0.95468
H          5.31743        2.01458       -1.04533
H          3.84001        2.81463       -1.59037
C          3.66405        0.66928       -1.46740
H          4.11965       -0.16153       -0.89828
H          3.94801        0.51367       -2.52061
C          2.14754        0.60190       -1.32199
H          1.69611        1.36308       -1.97232
H          1.77728       -0.37795       -1.65348
