43
Indole_H14_Int1_Sub4.log	Energy: -693601.3956904
C         -0.10431       -0.44891        1.26572
C         -1.36454        0.26165        1.44214
C         -0.39549       -1.58802        0.46287
C         -2.33058       -0.43207        0.68737
C         -1.71477        1.43057        2.12177
C          0.45495       -2.79146        0.12455
N         -1.70815       -1.54205        0.13216
C         -3.64625        0.00927        0.57731
C         -3.03245        1.86716        2.03446
H         -0.95178        1.98425        2.67140
H         -2.12941       -2.12537       -0.57844
C         -3.98240        1.16792        1.27156
H         -4.38283       -0.52595       -0.02523
H         -3.33428        2.77800        2.55621
H         -5.00653        1.54408        1.21596
O          2.40438        0.57747        0.37279
C          2.50676        1.41973        1.36413
O          1.57269        2.00337        1.88550
C          3.93799        1.60831        1.81590
H          4.51001        2.09724        1.01343
H          3.96501        2.22876        2.71945
H          4.41181        0.63442        2.00435
H          0.73134       -0.39163        1.95821
Pd         0.64907        0.42569       -0.52549
O          0.93048        1.40242       -2.42763
C         -0.24989        1.08348       -2.71795
O         -0.91413        0.39932       -1.86891
C         -0.88951        1.51101       -3.99691
H         -1.50856        2.39955       -3.79878
H         -0.12468        1.77135       -4.73846
H         -1.54906        0.71904       -4.37540
C          1.82761       -2.66789        0.78577
H          2.45523       -3.52262        0.49302
H          2.33935       -1.73975        0.49206
H          1.74019       -2.67636        1.88284
C         -0.25742       -4.04311        0.66282
H         -1.22639       -4.21457        0.16953
H          0.36845       -4.93041        0.48403
H         -0.43686       -3.96336        1.74545
C          0.62030       -2.90496       -1.39762
H          1.17000       -3.82531       -1.64694
H         -0.34901       -2.94104       -1.91927
H          1.18063       -2.04461       -1.79305
