34
Indolizine_H13_Int1_Sub9.log	Energy: -806380.9357277
C         -0.23541       -0.84264        1.14596
C          0.29185       -1.54165        0.02403
N          0.83983       -0.11502        1.68175
C          1.63236       -1.18049       -0.13850
H         -0.25137       -2.29196       -0.54807
C          1.96214       -0.27759        0.89310
C          0.81877        0.68793        2.77782
C          2.50695       -1.55879       -1.27638
C          3.13335        0.43045        1.23893
C          1.94764        1.36907        3.13533
H         -0.13200        0.74373        3.30988
C          3.12108        1.23838        2.34922
H          4.02170        0.31187        0.61960
H          1.92976        2.00981        4.01688
H          4.02123        1.78838        2.63087
O         -2.70304       -0.94255       -0.39499
C         -3.40448       -1.21794        0.66502
O         -3.10833       -0.91787        1.81286
C         -4.67516       -1.96916        0.33699
H         -5.14381       -2.33151        1.25950
H         -5.36613       -1.29108       -0.18594
H         -4.46334       -2.80442       -0.34475
H         -1.08884       -1.09819        1.78575
Pd        -1.18355        0.32344       -0.32620
O         -1.73637        2.01516       -1.55657
C         -0.59470        2.48644       -1.32540
O          0.18485        1.82148       -0.56032
C         -0.12605        3.76138       -1.94062
H          0.41880        3.52249       -2.86710
H         -0.98218        4.39850       -2.19390
H          0.56492        4.27945       -1.26327
F          2.09978       -2.69652       -1.84161
F          3.78078       -1.72495       -0.88572
F          2.52707       -0.62657       -2.24018
