43
Indolizine_H14_Int1_Sub4.log	Energy: -693584.0797423
C         -0.29019       -1.59440       -0.32416
C         -1.57715       -1.19403       -0.06792
C          0.29252       -0.75001       -1.33821
C         -2.51556       -1.67539        1.01467
N         -1.86476       -0.14384       -0.96054
C         -0.76719        0.11202       -1.76700
H          1.10041       -1.05583       -2.00337
C         -2.99792        0.60347       -1.08000
C         -0.85129        1.08477       -2.77045
C         -3.09423        1.56921       -2.04730
H         -3.80403        0.38896       -0.38540
C         -2.01283        1.81139       -2.91966
H          0.02303        1.25404       -3.40027
H         -4.01815        2.14324       -2.12424
H         -2.09346        2.57466       -3.69552
O          2.99565       -0.12854       -0.64119
C          3.35793       -1.35305       -0.39121
O          2.65619       -2.20901        0.12219
C          4.79123       -1.62597       -0.79557
H          4.99626       -1.22600       -1.79822
H          5.46399       -1.10849       -0.09500
H          4.98971       -2.70393       -0.76030
H          0.26712       -2.38471        0.17062
Pd         1.26252        0.50215        0.06423
O          1.73036        1.92958        1.64075
C          0.49649        2.11111        1.77155
O         -0.29945        1.46993        1.00449
C         -0.05679        3.02075        2.82045
H          0.66207        3.81744        3.04885
H         -1.01811        3.43979        2.49683
H         -0.22620        2.43682        3.73861
C         -1.80971       -2.79684        1.78472
H         -2.47391       -3.17484        2.57598
H         -1.55322       -3.63992        1.12643
H         -0.88492       -2.43707        2.25867
C         -2.82116       -0.54641        2.01444
H         -3.39811        0.28004        1.57639
H         -3.40652       -0.94524        2.85735
H         -1.88575       -0.11548        2.39698
C         -3.80920       -2.25641        0.42067
H         -4.45464       -2.63429        1.22860
H         -4.39790       -1.52365       -0.14951
H         -3.58171       -3.09498       -0.25435
