43
Indole_H13_deriv1_Int1_Sub5.log	Energy: -693596.5592051
C         -0.17874       -0.62452        1.53796
C          0.18068       -1.16975        0.26848
N          0.93144       -0.17356        2.17933
C          1.63759       -0.95351        0.16658
C         -0.64937       -2.31336       -0.30025
C          2.03921       -0.32862        1.37352
H          0.91630        0.36534        3.03400
C          2.61095       -1.17641       -0.83208
C          3.34977        0.05717        1.64440
C          3.92543       -0.80293       -0.54571
C          2.29439       -1.73831       -2.18319
C          4.29495       -0.20452        0.66542
H          3.61430        0.54770        2.58299
H          4.69061       -0.97048       -1.30754
H          5.33857        0.07279        0.83070
O         -2.56299        0.08521       -0.42793
C         -3.38163       -0.38382        0.46300
O         -3.11075       -0.64233        1.62667
C         -4.76525       -0.61931       -0.10197
H         -5.43404       -0.98427        0.68624
H         -5.15634        0.31249       -0.53451
H         -4.70825       -1.35552       -0.91743
H         -1.14832       -0.74287        2.03486
Pd        -0.75001        0.79013       -0.07704
O         -0.93597        2.82291       -0.80352
C          0.27966        2.98096       -0.52178
O          0.90834        2.00079       -0.00025
C          0.99482        4.25774       -0.81308
H          0.30807        5.10752       -0.71037
H          1.86364        4.37003       -0.15263
H          1.35062        4.22991       -1.85461
H          1.51184       -1.14697       -2.68185
H          1.93267       -2.77575       -2.12610
H          3.18692       -1.73085       -2.82289
H         -1.59706       -2.25999        0.25642
C         -1.01486       -2.26532       -1.78057
H         -1.76919       -3.03995       -1.98922
H         -1.45570       -1.29586       -2.04655
H         -0.15988       -2.46341       -2.43745
C          0.01109       -3.63992        0.08279
H          0.18318       -3.70274        1.16785
H         -0.63260       -4.48411       -0.20893
H          0.98398       -3.77002       -0.41517
