47
Indole_H14_Int1_Sub11.log	Energy: -742150.7921758
C         -0.23398       -0.21058       -1.54010
C          0.70171       -1.23381       -1.12241
C         -1.40062       -0.89262       -1.96235
C          0.06417       -2.47808       -1.31084
C          1.98951       -1.15166       -0.56375
H         -2.24278       -0.49846       -2.53046
N         -1.18837       -2.23879       -1.84782
C          0.68081       -3.68170       -0.97208
C          2.60655       -2.36102       -0.24755
C          2.57716        0.20144       -0.26041
H         -1.90454       -2.94136       -1.96744
C          1.96552       -3.59503       -0.45025
H          0.18355       -4.64369       -1.10842
H          3.60964       -2.35774        0.18198
H          2.49157       -4.51375       -0.17955
O         -2.29365        1.71810       -0.94272
C         -1.49287        2.74661       -0.94939
O         -0.33437        2.73128       -0.56571
C         -2.15305        3.99662       -1.48404
H         -2.88184        4.35879       -0.74334
H         -1.39692        4.77103       -1.65922
H         -2.70730        3.77944       -2.40748
H          0.02156        0.82367       -1.76834
Pd        -1.68301        0.10165        0.02271
O         -2.50077        0.22673        2.01065
C         -1.97285       -0.89196        2.24664
O         -1.35146       -1.47374        1.29657
C         -2.02461       -1.51674        3.59986
H         -1.09374       -1.26831        4.13275
H         -2.87325       -1.12102        4.17083
H         -2.08221       -2.60943        3.51269
H          2.24849        0.88904       -1.06079
C          4.10341        0.24916       -0.22246
H          4.51917       -0.14959       -1.16251
H          4.47304       -0.40405        0.58830
C          4.59826        1.66985        0.02896
H          5.69989        1.68727        0.06037
H          4.30096        2.31073       -0.82059
C          4.01747        2.24291        1.31768
H          4.35309        3.28331        1.45841
H          4.41576        1.66999        2.17548
C          2.49467        2.16895        1.32592
H          2.07266        2.83837        0.55727
H          2.09708        2.52379        2.29055
C          1.99526        0.75693        1.05126
H          2.27992        0.07590        1.87405
H          0.89601        0.75732        0.99701
