43
Indolizine_H13_Int1_Sub28.log	Energy: -693584.8498784
C         -0.62784       -1.08693       -1.01856
C          0.03893       -0.51370       -2.15815
N          0.42256       -1.33508       -0.08409
C          1.35740       -0.29694       -1.85616
H         -0.46516       -0.26956       -3.09183
C          1.60458       -0.80402       -0.53932
C          0.26997       -1.95173        1.11023
H          2.08612        0.20326       -2.48508
C          2.74451       -0.83658        0.30773
C          1.36428       -2.05444        1.92600
H         -0.75214       -2.27644        1.33236
C          2.58832       -1.48332        1.52380
C          4.05334       -0.16390       -0.10350
H          1.27008       -2.55102        2.89178
H          3.43351       -1.54730        2.20859
O         -3.34004       -0.34165       -0.47237
C         -3.59183       -1.41021        0.21052
O         -2.77848       -2.04388        0.87627
C         -5.04153       -1.83590        0.12900
H         -5.16443       -2.83843        0.55590
H         -5.65515       -1.11972        0.69615
H         -5.39352       -1.81102       -0.91155
H         -1.38446       -1.87150       -1.08288
Pd        -1.58929        0.57505       -0.26493
O         -1.96104        2.53808        0.64480
C         -0.72430        2.72912        0.58148
O          0.01357        1.80743        0.08986
C         -0.09692        4.00818        1.03500
H          0.10446        4.63641        0.15371
H         -0.77401        4.54799        1.70779
H          0.86321        3.80411        1.52760
C          5.12276       -0.30716        0.98169
H          6.04354        0.19662        0.65239
H          4.81292        0.15938        1.92913
H          5.37561       -1.36068        1.17679
C          4.60304       -0.81602       -1.38195
H          3.91017       -0.74711       -2.23015
H          5.54392       -0.32668       -1.67791
H          4.81393       -1.88295       -1.21238
C          3.80033        1.33818       -0.31416
H          4.73110        1.83601       -0.62777
H          3.02992        1.54007       -1.06902
H          3.45767        1.80439        0.62178
