35
Indole_H14_Int1_Sub24.log	Energy: -666814.4564863
C          0.25083       -1.52607        0.11559
C         -1.06760       -1.33476        0.68664
C          0.12366       -1.25096       -1.27055
C         -1.90511       -0.94398       -0.37185
C         -1.58348       -1.43306        1.98778
H          0.82960       -1.47840       -2.06863
N         -1.17903       -0.93667       -1.54168
C         -3.25245       -0.60920       -0.18042
C         -2.92023       -1.12518        2.17773
H         -0.94436       -1.73330        2.81950
H         -1.53154       -0.58218       -2.41992
C         -3.75034       -0.71427        1.11409
O         -3.93205       -0.21966       -1.27944
H         -3.35448       -1.19213        3.17756
H         -4.79397       -0.47489        1.32062
O          2.86040       -0.49927       -0.75354
C          3.52613       -1.18237        0.13688
O          3.11708       -1.47638        1.24636
C          4.90001       -1.58175       -0.35393
H          5.53086       -0.68287       -0.42293
H          5.35218       -2.29391        0.34640
H          4.84027       -2.01510       -1.36199
H          1.08519       -2.03978        0.59703
Pd         1.18294        0.40032       -0.21914
O          1.69534        2.46341        0.10654
C          0.47261        2.68605        0.31099
O         -0.34123        1.71079        0.20137
C         -0.02117        4.03677        0.70746
H          0.05109        4.12700        1.80237
H          0.60721        4.81603        0.25806
H         -1.07216        4.16073        0.41807
C         -5.27866        0.14119       -1.13237
H         -5.88785       -0.70253       -0.76366
H         -5.39689        0.99457       -0.44218
H         -5.63889        0.43320       -2.12669
