34
Indole_H13_deriv1_Int1_Sub10.log	Energy: -907938.9879241
C         -0.08426       -0.75648        1.36243
C          0.16138       -1.46335        0.15799
N          1.09075       -0.17907        1.75077
C          1.56524       -1.26803       -0.15940
H         -0.46846       -2.27571       -0.20444
C          2.10482       -0.42564        0.83334
Cl         1.19850        0.98072        2.97058
C          2.36703       -1.71711       -1.22165
C          3.42240        0.01896        0.81165
C          3.69318       -1.28721       -1.23272
C          1.79265       -2.59543       -2.28899
C          4.20734       -0.43617       -0.24108
H          3.80913        0.68987        1.57937
H          4.34846       -1.61429       -2.04372
H          5.25128       -0.12029       -0.30219
O         -2.54642       -0.89424       -0.58345
C         -3.28441       -1.16073        0.45678
O         -2.99945       -0.90090        1.61465
C         -4.58380       -1.83666        0.08232
H         -5.08028       -2.21419        0.98399
H         -5.23587       -1.10336       -0.41567
H         -4.40482       -2.65117       -0.63294
H         -0.97502       -0.78918        1.99820
Pd        -0.96173        0.27316       -0.42411
O         -1.53943        2.14481       -1.32694
C         -0.36520        2.54783       -1.12157
O          0.44986        1.74849       -0.54964
C          0.09257        3.89895       -1.55512
H         -0.75456        4.59542       -1.58156
H          0.88381        4.26457       -0.88845
H          0.50875        3.81886       -2.57129
H          0.93307       -2.10784       -2.77670
H          1.42667       -3.54672       -1.87040
H          2.53783       -2.82904       -3.06112
