43
Indole_H13_deriv1_Int1_Sub13.log	Energy: -693601.0272231
C          0.14834        1.24432       -0.84102
C         -0.30697        0.11346       -1.56697
N         -0.87346        1.76979       -0.11506
C         -1.71795       -0.00882       -1.25411
H          0.19437       -0.28792       -2.44768
C         -2.01953        1.01323       -0.32796
C         -0.72611        2.78579        0.92483
C         -2.70013       -0.92419       -1.66388
C         -3.29207        1.15116        0.22717
C         -3.97409       -0.76613       -1.12020
C         -2.36285       -2.02432       -2.62133
C         -4.26163        0.24861       -0.19408
H         -3.52334        1.92611        0.95916
H         -4.76669       -1.45843       -1.41496
H         -5.27337        0.32618        0.21097
O          2.43971       -0.65403       -1.18546
C          3.28728        0.32337       -1.05078
O          3.10825        1.32587       -0.37343
C          4.56480        0.09842       -1.82696
H          5.14946        1.02537       -1.86029
H          5.15170       -0.68509       -1.32422
H          4.34478       -0.25983       -2.84192
H          1.11249        1.74965       -0.90782
Pd         0.87397       -0.71566        0.02616
O          1.47406       -1.89518        1.73245
C          0.30366       -1.76306        2.17454
O         -0.52665       -1.08174        1.48505
C         -0.13301       -2.39794        3.45232
H          0.73710       -2.64802        4.07111
H         -0.81884       -1.72990        3.98985
H         -0.68097       -3.32334        3.21739
H         -1.55691       -2.65846       -2.21745
H         -2.00321       -1.62325       -3.58257
H         -3.23296       -2.66321       -2.82408
H         -1.68481        3.33043        0.93903
C         -0.50100        2.13376        2.28451
H         -0.50816        2.89622        3.07741
H         -1.27520        1.38490        2.50171
H          0.47421        1.62366        2.30039
C          0.37922        3.76773        0.57212
H          0.21435        4.21825       -0.41772
H          0.39977        4.57569        1.31693
H          1.36702        3.28120        0.57884
