39
Indole_H13_deriv1_Int1_Sub7.log	Energy: -679011.9260066
C         -0.18173       -0.92710        0.97810
C          0.60323       -1.47144       -0.11294
N          0.76757       -0.43156        1.90469
C          1.96982       -1.06819        0.09099
N          0.15602       -2.27639       -1.07922
C          2.00464       -0.41602        1.35189
H          0.49779        0.15494        2.68127
C          3.14509       -1.21304       -0.68109
C          3.19815        0.11774        1.85999
C          4.31742       -0.68801       -0.15505
C          3.13605       -1.88744       -2.02018
C          4.33792       -0.03382        1.09319
H          3.22041        0.63415        2.82091
H          5.24445       -0.77788       -0.72586
H          5.28490        0.36945        1.46055
O         -2.81502       -0.03515       -0.26302
C         -3.47986       -0.87889        0.45402
O         -3.02554       -1.62991        1.31117
C         -4.95803       -0.88544        0.11966
H         -5.47303       -1.66259        0.69672
H         -5.38872        0.10028        0.34933
H         -5.09907       -1.05256       -0.95800
H         -1.08719       -1.42186        1.36638
Pd        -0.97881        0.70199       -0.02363
O         -1.11735        2.76136       -0.86785
C          0.08885        2.87812       -0.55838
O          0.68133        1.89441        0.00729
C          0.86786        4.11971       -0.85826
H          0.19425        4.98217       -0.93342
H          1.63435        4.28473       -0.08997
H          1.37903        3.99071       -1.82486
H          2.43557       -1.39360       -2.71496
H          2.84738       -2.94932       -1.93827
H          4.13077       -1.85716       -2.48421
H          0.79058       -2.45910       -1.84344
C         -1.22626       -2.64321       -1.25591
H         -1.80974       -1.81251       -1.68962
H         -1.68358       -2.88915       -0.28756
H         -1.28423       -3.52011       -1.91327
