34
Indolizine_H14_Int1_Sub25.log	Energy: -806376.3591944
C          0.35801        0.05430        2.32467
C         -0.64109        0.95432        2.57498
C         -0.03386       -0.76603        1.20233
H         -0.70102        1.78572        3.27196
N         -1.67944        0.71560        1.68627
C         -1.36129       -0.35232        0.86522
H          0.34439       -1.76762        1.00298
C         -2.84021        1.41109        1.55355
C         -2.31682       -0.77815       -0.07763
C         -3.77094        1.01447        0.63343
H         -2.96812        2.26710        2.21636
C         -3.51359       -0.10394       -0.18852
C         -1.99038       -1.94014       -0.97995
H         -4.70422        1.57028        0.54311
H         -4.25282       -0.43465       -0.91859
O          2.26339       -1.10038       -0.49941
C          3.06219       -1.47908        0.45608
O          3.04396       -1.05902        1.60117
C          4.05946       -2.51862       -0.00682
H          3.55309       -3.31715       -0.56666
H          4.77774       -2.04587       -0.69334
H          4.59489       -2.93113        0.85661
H          1.31507       -0.04780        2.83177
Pd         1.05581        0.42505       -0.19493
O          1.74429        1.97868       -1.52995
C          0.78288        2.68097       -1.13263
O         -0.01174        2.18335       -0.26411
C          0.57495        4.07628       -1.62211
H          1.00550        4.19369       -2.62422
H         -0.49378        4.32621       -1.62241
H          1.09083        4.76958       -0.93982
F         -3.05873       -2.32089       -1.68173
F         -1.56838       -2.99501       -0.27891
F         -1.02931       -1.62517       -1.84736
