40
Indolizine_H13_Int1_Sub29.log	Energy: -668937.2548114
C         -0.52911       -1.07731       -1.08959
C          0.11468       -0.49006       -2.23911
N          0.54683       -1.38880       -0.20315
C          1.45075       -0.32220       -1.98223
H         -0.41921       -0.20352       -3.14389
C          1.71882       -0.87808       -0.69429
C          0.44617       -2.03396        0.98286
H          2.18514        0.17385       -2.61128
C          2.89352       -0.95832        0.08715
C          1.58117       -2.18539        1.73727
H         -0.56861       -2.34281        1.25377
C          2.80100       -1.63406        1.29141
C          4.13595       -0.24750       -0.39471
H          1.52055       -2.70903        2.69152
H          3.68645       -1.73505        1.92166
O         -3.18173       -0.25456       -0.38413
C         -3.43259       -1.33182        0.28579
O         -2.60657       -2.00750        0.89147
C         -4.89802       -1.70825        0.27205
H         -5.03120       -2.71841        0.67738
H         -5.45567       -0.98994        0.89188
H         -5.30476       -1.64153       -0.74643
H         -1.31619       -1.83158       -1.14958
Pd        -1.39257        0.59753       -0.24953
O         -1.64912        2.54845        0.72641
C         -0.41195        2.70133        0.60390
O          0.26805        1.77042        0.04897
C          0.28333        3.94307        1.06182
H          0.51823        4.56402        0.18382
H         -0.36057        4.51334        1.74180
H          1.23255        3.68335        1.55000
H          4.17536       -0.38288       -1.48978
C          4.00200        1.25368       -0.11194
H          4.82955        1.81350       -0.57430
H          3.04800        1.65452       -0.48503
H          4.02992        1.43749        0.97388
C          5.42805       -0.80897        0.18280
H          5.51980       -1.89111        0.00476
H          6.29527       -0.31390       -0.27850
H          5.49795       -0.63271        1.26791
