31
Indolizine_H13_Int1_Sub18.log	Energy: -883303.1052711
C          0.02839       -1.25441       -0.49153
C         -0.04534       -1.28469       -1.92218
N          1.40880       -1.11808       -0.20831
C          1.21103       -1.09048       -2.46217
H         -0.97832       -1.44230       -2.46123
C          2.12243       -0.98018       -1.38645
C          2.00396       -1.02390        1.00768
H          1.48009       -1.00691       -3.51230
C          3.50882       -0.76064       -1.31720
C          3.35900       -0.82041        1.09937
Cl         0.99189       -1.15604        2.36943
C          4.11612       -0.69064       -0.08329
H          4.07429       -0.64934       -2.24255
H          3.81609       -0.75274        2.08546
H          5.19258       -0.52384       -0.00968
O         -2.68609       -0.19380       -0.47242
C         -3.11423       -1.20385        0.22160
O         -2.43520       -1.92870        0.93525
C         -4.60589       -1.41558        0.07077
H         -4.89617       -2.37213        0.52127
H         -5.13624       -0.59449        0.57616
H         -4.89373       -1.38258       -0.98918
H         -0.61008       -1.82952        0.20137
Pd        -0.88198        0.59576       -0.25281
O         -1.15569        2.72640        0.19497
C          0.09410        2.81433        0.19956
O          0.78166        1.75809       -0.02541
C          0.79527        4.11369        0.42772
H          1.04245        4.55768       -0.54898
H          0.14293        4.80696        0.97241
H          1.73425        3.94813        0.97186
