35
Indolizine_H13_Int1_Sub16.log	Energy: -666801.3607402
C          0.07232       -0.90634       -0.94793
C          1.09609       -0.29960       -1.78430
N          0.80742       -1.47248        0.14939
C          2.30144       -0.36632       -1.13845
H          0.87789        0.17148       -2.73983
C          2.11931       -1.10803        0.07726
C          0.30728       -2.21938        1.15881
O          3.50569        0.12858       -1.43733
C          3.00176       -1.47812        1.09714
C          1.15527       -2.62654        2.16283
H         -0.77239       -2.40453        1.09304
C          2.51224       -2.24412        2.13793
H          4.04262       -1.16044        1.03758
H          0.75658       -3.23039        2.97824
H          3.17721       -2.55370        2.94706
O         -2.66323       -0.04463       -0.87042
C         -3.12694       -1.18121       -0.47386
O         -2.53078       -2.00032        0.22124
C         -4.54164       -1.44242       -0.94459
H         -4.81769       -2.48599       -0.75160
H         -5.22680       -0.77674       -0.39810
H         -4.64318       -1.20495       -2.01257
H         -0.67698       -1.58570       -1.36492
Pd        -0.94987        0.67204       -0.15135
O         -1.38929        2.53833        0.94130
C         -0.15963        2.61301        1.16579
O          0.60817        1.69551        0.71313
C          0.43592        3.75988        1.91993
H          0.82175        4.49643        1.19829
H         -0.32745        4.24418        2.54087
H          1.27911        3.41520        2.53289
C          3.57458        0.92080       -2.59528
H          3.32076        0.33552       -3.49656
H          2.89055        1.78405       -2.52420
H          4.60755        1.27952       -2.67861
