40
Indolizine_H14_Int1_Sub5.log	Energy: -668936.8540650
C         -0.19575       -1.75928        0.11050
C         -1.51705       -1.48540        0.34770
C          0.22170       -1.09272       -1.10287
C         -2.37210       -1.76915        1.54143
N         -1.98360       -0.71541       -0.72666
C         -0.96904       -0.50214       -1.64238
H          1.04156       -1.43126       -1.73724
C         -3.22636       -0.19260       -0.90866
C         -1.24777        0.19858       -2.82192
C         -3.51358        0.50614       -2.05212
H         -3.95250       -0.36917       -0.11695
C         -2.51621        0.69834       -3.03197
H         -0.44169        0.34749       -3.54148
H         -4.51769        0.90956       -2.18649
H         -2.74724        1.24950       -3.94521
O          2.83079        0.01481       -0.71094
C          3.36583       -1.05262       -0.19404
O          2.80253       -1.84027        0.54812
C          4.81431       -1.22702       -0.59929
H          4.93963       -1.06257       -1.67844
H          5.42292       -0.46997       -0.08193
H          5.16250       -2.22781       -0.31676
H          0.48342       -2.33617        0.73375
Pd         1.04051        0.57261       -0.09129
O          1.33224        2.38646        1.08105
C          0.08683        2.43556        1.21670
O         -0.62476        1.53396        0.65616
C         -0.57651        3.49278        2.03899
H          0.10104        4.34200        2.18803
H         -1.50935        3.81690        1.55861
H         -0.83412        3.06665        3.02102
H         -3.38173       -2.04178        1.17881
C         -1.83076       -2.95956        2.32524
H         -2.49235       -3.19281        3.17228
H         -1.74769       -3.85576        1.69337
H         -0.83299       -2.73849        2.73426
C         -2.49798       -0.53241        2.43955
H         -2.85411        0.35010        1.88941
H         -3.18621       -0.72932        3.27596
H         -1.51117       -0.26969        2.84861
