34
Indole_H14_Int1_Sub6.log	Energy: -619652.7788332
C         -0.17020       -1.48913       -0.09524
C         -1.51565       -1.31563        0.42278
C         -0.22792       -1.17410       -1.48280
C         -2.31206       -0.85769       -0.64833
C         -2.07912       -1.47273        1.69132
C          0.74694       -1.49126       -2.56233
N         -1.51381       -0.81112       -1.77764
C         -3.65668       -0.53343       -0.48437
C         -3.42532       -1.16932        1.85960
H         -1.46542       -1.81536        2.52692
H         -1.79176       -0.40022       -2.65850
C         -4.20020       -0.70331        0.78493
H         -4.26137       -0.16298       -1.31448
H         -3.88830       -1.28638        2.84167
H         -5.25382       -0.46563        0.94895
O          2.49171       -0.45450       -0.24371
C          2.92145       -0.97625        0.87421
O          2.25495       -1.08535        1.88744
C          4.35787       -1.43997        0.78616
H          5.01395       -0.56370        0.67611
H          4.62772       -1.98965        1.69557
H          4.50645       -2.07028       -0.10209
H          0.60181       -2.09285        0.37946
Pd         0.72872        0.44670       -0.16380
O          1.14865        2.53241        0.14980
C         -0.09002        2.74712        0.08204
O         -0.85849        1.75799       -0.15635
C         -0.66238        4.10587        0.31108
H         -0.84052        4.23092        1.39036
H          0.04980        4.87637       -0.00999
H         -1.62137        4.21160       -0.21139
H          0.72125       -0.73284       -3.35900
H          0.50089       -2.46837       -3.01009
H          1.76141       -1.52645       -2.14673
