43
Indolizine_H13_Int1_Sub4.log	Energy: -693589.6896267
C          0.21098       -0.52059        0.97879
C          0.76311       -1.72137        0.36678
N          1.35183        0.29347        1.27536
C          2.11558       -1.53984        0.19529
C         -0.05681       -2.92440       -0.04603
C          2.48006       -0.28379        0.75763
C          1.34593        1.48113        1.92092
H          2.81802       -2.21184       -0.29243
C          3.69834        0.40532        0.87478
C          2.53160        2.15944        2.07197
H          0.35455        1.81733        2.24690
C          3.71774        1.61772        1.53424
H          4.60218       -0.03241        0.45017
H          2.53423        3.11675        2.59316
H          4.65766        2.16422        1.63881
O         -2.46054        0.37534        0.44954
C         -2.58882        0.99599        1.57687
O         -1.68368        1.53982        2.20156
C         -4.01098        0.99552        2.09302
H         -4.05308        1.45799        3.08619
H         -4.65122        1.55399        1.39431
H         -4.39837       -0.03261        2.13289
H         -0.51679       -0.57100        1.79195
Pd        -0.74323        0.45655       -0.55585
O         -1.11927        1.50129       -2.44791
C          0.08726        1.29968       -2.72164
O          0.81334        0.67731       -1.87236
C          0.69768        1.76069       -4.00627
H          1.10163        0.89376       -4.54902
H         -0.04756        2.27685       -4.62247
H          1.54009        2.43348       -3.78961
C         -0.36039       -2.83087       -1.55085
H         -0.89943       -3.73265       -1.88191
H         -0.98585       -1.95177       -1.76994
H          0.56492       -2.73992       -2.13893
C          0.74452       -4.20299        0.22557
H          1.02081       -4.28344        1.28787
H          0.14256       -5.08552       -0.03989
H          1.66779       -4.24097       -0.37178
C         -1.37372       -2.96954        0.73452
H         -1.96712       -3.83993        0.41613
H         -1.19294       -3.06510        1.81677
H         -1.97740       -2.06541        0.56242
