37
Indole_H13_deriv1_Int1_Sub6.log	Energy: -644300.8923898
C         -0.15596       -0.92132        1.48354
C          0.18846       -1.41618        0.19325
N          0.96516       -0.44904        2.10040
C          1.62096       -1.15095        0.05217
C         -0.55820       -2.51150       -0.51216
C          2.05018       -0.54029        1.25113
H          0.95498        0.08983        2.95529
C          2.53354       -1.36185       -0.99859
C          3.36547       -0.12646        1.45336
C          3.85114       -0.95913       -0.78232
C          2.10882       -1.95385       -2.30838
C          4.25985       -0.35644        0.41721
H          3.67635        0.35878        2.38028
H          4.58427       -1.10637       -1.57930
H          5.30316       -0.05312        0.53181
O         -2.50280       -0.30315       -0.62908
C         -3.32828       -0.85611        0.20684
O         -3.09337       -1.12149        1.37629
C         -4.65938       -1.18254       -0.43350
H         -5.33237       -1.62666        0.30922
H         -5.10451       -0.26994       -0.85480
H         -4.50550       -1.88224       -1.26822
H         -1.10498       -1.08456        2.00236
Pd        -0.79502        0.52623       -0.09230
O         -1.08893        2.57305       -0.71666
C          0.08615        2.81066       -0.33480
O          0.75397        1.85545        0.18306
C          0.71040        4.15498       -0.50713
H         -0.05301        4.93936       -0.42884
H          1.50789        4.30512        0.23123
H          1.15427        4.20818       -1.51327
H          1.27157       -1.38611       -2.74380
H          1.76845       -2.99475       -2.19656
H          2.93712       -1.94667       -3.02970
H         -0.74758       -2.28673       -1.56931
H         -1.51939       -2.69395       -0.01797
H          0.03426       -3.43847       -0.45807
