35
Isoquinoline_H12_Int1_Sub6.log	Energy: -643532.9136837
C          0.21729       -1.38168        0.58747
C          1.47254       -1.27005       -0.10927
C          0.04995       -0.80674        1.86792
C          2.54351       -0.56054        0.48434
C          1.66987       -1.83699       -1.38777
C          1.16068       -0.08105        2.43089
C         -1.09255       -1.18349        2.76397
C          2.35027        0.02854        1.77564
C          3.74719       -0.47685       -0.24055
H          0.83348       -2.35659       -1.87029
N          2.80528       -1.75299       -2.04902
H          1.03243        0.37228        3.41660
H          3.17883        0.57852        2.22819
H          4.60359        0.06266        0.17025
C          3.82323       -1.08479       -1.47954
H          4.75060       -1.03499       -2.06072
O         -2.48698       -0.49999        0.15806
C         -2.67764       -1.19900       -0.93009
O         -1.82248       -1.39622       -1.77563
C         -4.08172       -1.74286       -1.03962
H         -4.38827       -2.22033       -0.09846
H         -4.77553       -0.90887       -1.22308
H         -4.13899       -2.45601       -1.87034
H         -0.50670       -2.10769        0.21316
Pd        -0.78115        0.49856        0.19016
O         -1.27322        2.36856       -0.68554
C         -0.07536        2.73039       -0.52155
O          0.71304        1.91207        0.05439
C          0.41912        4.04652       -1.01323
H          1.27114        4.38434       -0.41016
H          0.75664        3.92435       -2.05413
H         -0.39222        4.78503       -0.99938
H         -1.38577       -0.33964        3.40510
H         -0.77732       -2.00944        3.42319
H         -1.96730       -1.50038        2.18383
