35
Isoquinoline_H12_Int1_Sub9.log	Energy: -830271.9258357
C         -0.11535        0.71312        1.06205
C         -1.47880        0.34317        0.77599
C          0.62375       -0.02966        1.99983
C         -2.04975       -0.76307        1.45685
C         -2.29721        1.01092       -0.16869
C          0.02473       -1.14652        2.67295
H          1.56197        0.40148        2.35595
C         -1.26572       -1.49353        2.40941
C         -3.38463       -1.10221        1.16509
C         -1.73657        2.17112       -0.97753
N         -3.53810        0.67549       -0.43002
H          0.61203       -1.70145        3.40710
H         -1.73044       -2.33919        2.92149
H         -3.85923       -1.94677        1.66934
C         -4.07730       -0.36035        0.23072
H         -5.11609       -0.60137       -0.01664
O          2.81081        0.41873       -0.18082
C          3.08720        1.57113        0.35841
O          2.38472        2.17892        1.14721
C          4.41897        2.10736       -0.11705
H          5.20141        1.34453       -0.00190
H          4.35091        2.34439       -1.18908
H          4.67489        3.01173        0.44721
H          0.29244        1.67880        0.75556
Pd         1.18755       -0.66844       -0.04541
O          1.59212       -2.03350       -1.63215
C          0.49574       -2.60188       -1.38092
O         -0.19503       -2.14451       -0.40986
C         -0.00769       -3.73971       -2.19833
H         -0.65547       -4.38701       -1.59390
H         -0.60328       -3.33389       -3.03083
H          0.83334       -4.30440       -2.61955
F         -1.33524        3.16489       -0.17539
F         -2.62055        2.66153       -1.82464
F         -0.66514        1.77540       -1.68146
