45
Napthalene_H7_Int1_Sub4.log	Energy: -707420.9486301
C          0.06309       -1.03912        0.79899
C         -1.34434       -0.94159        1.11542
C          0.50654       -1.61327       -0.41355
C         -2.29886       -1.39593        0.16717
C         -1.78244       -0.40193        2.34200
C         -0.49570       -2.00363       -1.36312
C          1.94843       -2.07694       -0.65737
C         -1.82734       -1.91512       -1.07588
C         -3.67284       -1.30914        0.47719
C         -3.13343       -0.33257        2.62209
H         -1.03666       -0.00749        3.03463
H         -0.18306       -2.40081       -2.32955
H         -2.56400       -2.23930       -1.81536
H         -4.40486       -1.65505       -0.25697
C         -4.08331       -0.78961        1.68838
H         -3.46853        0.09034        3.57197
H         -5.14853       -0.72452        1.92213
O          2.00072        1.16323        0.63611
C          1.86168        1.52547        1.88207
O          0.81541        1.48346        2.50538
C          3.16364        1.97847        2.50161
H          3.65248        2.72508        1.86067
H          2.97498        2.39283        3.49896
H          3.84789        1.12010        2.58445
H          0.76025       -0.89714        1.62386
Pd         0.34649        0.77721       -0.37331
O          0.04508        2.61654       -1.38274
C         -0.98690        2.12722       -1.91984
O         -1.27172        0.91636       -1.65159
C         -1.86698        2.93959       -2.80642
H         -2.37624        2.29408       -3.53302
H         -2.63100        3.43072       -2.18410
H         -1.28163        3.71762       -3.31225
C          2.53992       -1.33820       -1.86473
H          3.52967       -1.75238       -2.11262
H          1.90211       -1.43397       -2.75666
H          2.66209       -0.26707       -1.64380
C          2.84858       -1.85966        0.55875
H          2.48225       -2.41466        1.43620
H          3.85926       -2.23086        0.33151
H          2.92412       -0.79491        0.81049
C          1.91064       -3.58869       -0.94696
H          2.93975       -3.96620       -1.04859
H          1.42683       -4.13798       -0.12474
H          1.37590       -3.82896       -1.87670
