37
Napthalene_H7_Int1_Sub32.log	Energy: -680643.3638540
C          0.14055       -1.27211       -0.83808
C         -0.94323       -1.60892        0.05213
C         -0.06653       -0.31486       -1.84972
C         -2.19233       -0.95448       -0.08840
C         -0.77206       -2.56626        1.07039
C         -1.32730        0.33008       -1.99862
H          0.69189       -0.18696       -2.62562
C         -2.35598        0.03110       -1.13420
C         -3.24311       -1.27459        0.79181
C         -1.81644       -2.86951        1.92320
H          0.20613       -3.04031        1.18017
H         -1.44866        1.06824       -2.78958
O         -3.56539        0.59686       -1.17740
H         -4.19832       -0.76121        0.67915
C         -3.05579       -2.22141        1.78174
H         -1.67678       -3.60983        2.71422
H         -3.87538       -2.46406        2.46212
O          2.73527       -0.00974       -0.94977
C          3.36968       -0.99769       -0.37970
O          2.91369       -1.69881        0.50739
C          4.76272       -1.18893       -0.93459
H          5.39729       -0.35393       -0.60157
H          5.18158       -2.13396       -0.56902
H          4.74908       -1.16989       -2.03312
H          1.01053       -1.92978       -0.85149
Pd         1.04012        0.54828       -0.10414
O          1.56106        2.14593        1.21984
C          0.33846        2.26115        1.50538
O         -0.48656        1.49047        0.91557
C         -0.13663        3.23820        2.52697
H         -1.17450        3.53010        2.32337
H         -0.10025        2.75429        3.51527
H          0.52342        4.11442        2.54949
C         -3.81737        1.60097       -2.12496
H         -3.13128        2.45474       -1.99431
H         -3.72424        1.21698       -3.15506
H         -4.84828        1.93620       -1.95897
