38
Napthalene_H7_Int1_Sub31.log	Energy: -668189.5017270
C          0.19823       -1.18146       -0.94763
C         -0.82637       -1.63552       -0.03596
C         -0.13408       -0.22078       -1.92516
C         -2.12761       -1.07626       -0.09474
C         -0.52814       -2.62473        0.92126
C         -1.42180        0.34691       -1.98092
H          0.58910        0.00820       -2.71152
C         -2.40457       -0.02806       -1.06924
C         -3.10570       -1.56508        0.79477
C         -1.50191       -3.07347        1.79209
H          0.49632       -3.00199        0.96730
H         -1.62386        1.12196       -2.71853
N         -3.62774        0.55299       -1.07117
H         -4.13230       -1.19347        0.75748
C         -2.80096       -2.54557        1.72116
H         -1.26287       -3.83807        2.53458
H         -3.57652       -2.91002        2.39849
O          2.75099        0.09552       -0.91341
C          3.38345       -0.91075       -0.37852
O          2.91735       -1.66667        0.45824
C          4.79486       -1.05379       -0.90302
H          5.40569       -0.22424       -0.51630
H          5.22099       -2.00749       -0.56959
H          4.80974       -0.98510       -1.99963
H          1.08891       -1.80156       -1.04935
Pd         1.02042        0.59192       -0.09593
O          1.45035        2.24014        1.22109
C          0.22280        2.29397        1.49410
O         -0.56014        1.47385        0.91356
C         -0.31041        3.26232        2.49808
H         -1.35548        3.51044        2.27364
H         -0.27248        2.79138        3.49256
H          0.31204        4.16556        2.52209
H         -4.21308        0.38642       -0.26714
C         -3.97851        1.65688       -1.91791
H         -5.01127        1.96054       -1.70468
H         -3.92498        1.37746       -2.98296
H         -3.31927        2.53041       -1.76160
