49
Napthalene_H7_Int1_Sub3.log	Energy: -755975.2123551
C         -0.15104       -0.84340        0.93167
C         -1.48938       -1.37919        0.97247
C          0.71174       -1.09821       -0.15898
C         -1.94693       -2.16740       -0.11646
C         -2.34615       -1.12023        2.06031
C          0.20335       -1.88788       -1.24619
C          2.19348       -0.83461       -0.04618
C         -1.06047       -2.40138       -1.21476
C         -3.25684       -2.68914       -0.07922
C         -3.62457       -1.64478        2.07218
H         -1.98766       -0.47469        2.86529
H          0.85200       -2.08966       -2.10034
H         -1.42237       -3.00681       -2.04984
H         -3.61177       -3.29303       -0.91816
C         -4.08078       -2.43433        0.99978
H         -4.28925       -1.43855        2.91420
H         -5.09459       -2.84100        1.01954
O          0.99752        1.80145        0.90955
C          0.57322        2.12149        2.10166
O         -0.50002        1.78083        2.56912
C          1.56433        2.97066        2.86322
H          1.64911        3.95297        2.37526
H          1.22485        3.10106        3.89751
H          2.56223        2.51008        2.84121
H          0.25773       -0.44450        1.86171
Pd        -0.33821        0.94437       -0.27127
O         -1.15822        2.57416       -1.36732
C         -1.88980        1.75184       -1.98450
O         -1.75913        0.51718       -1.70335
C         -2.90160        2.20097       -2.98251
H         -3.08665        1.41068       -3.72077
H         -3.84433        2.40954       -2.45339
H         -2.56861        3.12603       -3.46963
H          2.33074       -0.14174        0.79910
C          2.79983       -0.16095       -1.27898
H          2.27433        0.78766       -1.47314
H          2.64676       -0.79782       -2.16879
C          4.29187        0.08628       -1.09064
H          4.71457        0.55121       -1.99561
H          4.43113        0.81597       -0.27318
C          5.03655       -1.20071       -0.75360
H          6.10576       -0.99430       -0.58485
H          4.98578       -1.88679       -1.61887
C          4.43061       -1.88845        0.46484
H          4.58341       -1.25178        1.35479
H          4.94848       -2.83915        0.67075
C          2.93743       -2.13724        0.28349
H          2.77943       -2.86347       -0.53421
H          2.50645       -2.59220        1.19018
