33
OneHPyrrolo23bpyridine_H11_deriv1_Int1_Sub6.log	Energy: -918037.1626308
C          0.17727       -1.10748        0.79996
C          1.54968       -0.90929        0.38289
C          0.01239       -0.32621        1.98244
C          2.13817        0.00844        1.28215
C          2.34795       -1.34359       -0.67271
C         -1.05112       -0.40631        3.01985
N          1.19401        0.31640        2.23867
N          3.36033        0.50039        1.23481
C          3.65183       -0.85547       -0.74803
Cl         1.73122       -2.43330       -1.84703
H          1.33146        1.02672        2.94628
C          4.09766        0.05424        0.21959
H          4.31050       -1.17285       -1.55674
H          5.12078        0.43938        0.15579
O         -2.59903       -0.45624        0.41679
C         -2.87933       -1.37349       -0.47288
O         -2.12434       -1.71888       -1.36213
C         -4.25486       -1.96969       -0.28313
H         -5.01461       -1.19718       -0.47332
H         -4.39595       -2.80569       -0.97815
H         -4.38827       -2.30789        0.75440
H         -0.44398       -1.95382        0.50860
Pd        -0.93414        0.56169        0.07928
O         -1.51004        2.30723       -1.03453
C         -0.30464        2.66874       -1.00463
O          0.52366        1.93410       -0.36934
C          0.16731        3.89165       -1.71491
H          1.06021        4.29874       -1.22406
H          0.43534        3.61347       -2.74596
H         -0.63550        4.63821       -1.75839
H         -1.99235       -0.73407        2.56253
H         -1.21366        0.57115        3.49743
H         -0.75029       -1.12452        3.80037
