34
OneHPyrrolo23bpyridine_H9_Int1_Sub24.log	Energy: -676864.5143442
C          0.27166       -1.03521        1.56449
C         -0.42723       -0.28167        2.56721
C         -0.42009       -1.44165        0.39373
H          0.11105        0.00364        3.47691
N         -1.68419        0.07938        2.47193
C         -1.76985       -1.03408        0.27426
H          0.02778       -2.16636       -0.28939
C         -2.31060       -0.28401        1.34838
C         -2.81749       -1.17914       -0.68770
N         -3.60957       -0.01250        1.05713
C         -3.92525       -0.53592       -0.17455
O         -2.77218       -1.82789       -1.86851
H         -4.22424        0.51467        1.66231
H         -4.91536       -0.43094       -0.61024
O          2.20264       -0.94591       -0.69715
C          3.24952       -1.15033        0.05905
O          3.37216       -0.74103        1.19887
C          4.31691       -1.95866       -0.64152
H          4.75418       -1.35319       -1.44939
H          5.09937       -2.23686        0.07421
H          3.88124       -2.85472       -1.10508
H          1.25876       -1.43220        1.81131
Pd         0.85806        0.34156       -0.05081
O          1.33108        2.15338       -1.05326
C          0.30904        2.67403       -0.52613
O         -0.39532        1.94359        0.24412
C         -0.08925        4.08138       -0.80982
H         -0.55901        4.52658        0.07664
H          0.78289        4.66538       -1.12818
H         -0.82901        4.08089       -1.62524
C         -1.86094       -1.29797       -2.80724
H         -2.11522       -0.25418       -3.06212
H         -0.82020       -1.32252       -2.44138
H         -1.93243       -1.91774       -3.71024
