30
OneHPyrrolo23bpyridine_H11_Int1_Sub10.log	Energy: -893381.8695977
C          0.16759       -1.25419        0.55857
C          1.56278       -0.95228        0.34315
C         -0.13727       -0.71803        1.83512
C          2.03267       -0.25116        1.47952
C          2.47543       -1.13805       -0.69421
H         -1.01810       -0.91203        2.44626
N          0.99054       -0.15620        2.37379
N          3.24287        0.24221        1.66640
C          3.76617       -0.64384       -0.52540
Cl         2.00303       -1.93566       -2.13963
H          1.03661        0.37848        3.23124
C          4.08830        0.03063        0.66148
H          4.51118       -0.76986       -1.31123
H          5.10277        0.42298        0.78946
O         -2.69801       -0.44657        0.57098
C         -3.04717       -1.46003       -0.17554
O         -2.32877       -2.01669       -0.98647
C         -4.47815       -1.88371        0.06659
H         -5.15163       -1.11614       -0.34333
H         -4.67025       -2.84202       -0.43011
H         -4.68487       -1.95625        1.14327
H         -0.44003       -1.96889       -0.00426
Pd        -1.01410        0.51916        0.20607
O         -1.59025        2.35242       -0.75335
C         -0.37579        2.68595       -0.74161
O          0.45837        1.88049       -0.20738
C          0.09638        3.95770       -1.35858
H          1.02725        4.29118       -0.88319
H          0.29708        3.77398       -2.42549
H         -0.68336        4.72605       -1.28430
