46
OneHPyrrolo23bpyridine_H11_Int1_Sub11.log	Energy: -752214.8839567
C         -0.28339       -0.20670       -1.55709
C          0.70003       -1.18487       -1.14728
C         -1.43156       -0.94849       -1.93521
C          0.10891       -2.45686       -1.29622
C          1.99033       -1.09986       -0.60628
H         -2.30456       -0.59659       -2.48405
N         -1.16502       -2.28238       -1.80175
N          0.65511       -3.62154       -0.99796
C          2.58482       -2.32813       -0.30612
C          2.59683        0.24345       -0.31266
H         -1.83512       -3.03411       -1.89648
C          1.89276       -3.53130       -0.51727
H          3.59166       -2.36974        0.11129
H          2.38225       -4.47931       -0.26803
O         -2.38427        1.65235       -0.90926
C         -1.61775        2.70675       -0.93307
O         -0.45274        2.72850       -0.56879
C         -2.32609        3.93301       -1.45951
H         -3.05110        4.27584       -0.70600
H         -1.59780        4.72962       -1.65211
H         -2.89131        3.69491       -2.37103
H         -0.07659        0.83075       -1.81819
Pd        -1.68390        0.06909        0.04882
O         -2.43960        0.17223        2.06110
C         -1.85333       -0.91930        2.28632
O         -1.23304       -1.47466        1.31896
C         -1.83769       -1.54247        3.64048
H         -1.88305       -2.63600        3.55477
H         -0.88805       -1.28194        4.13285
H         -2.66750       -1.15967        4.24662
H          2.30263        0.91818       -1.13756
C          4.12122        0.25761       -0.22553
H          4.55899       -0.16444       -1.14517
H          4.44716       -0.39166        0.60684
C          4.63979        1.67057        0.02078
H          5.73965        1.66287        0.08895
H          4.38656        2.30412       -0.84832
C          4.02959        2.27698        1.28019
H          4.38404        3.31156        1.41637
H          4.38507        1.70919        2.15976
C          2.50624        2.23751        1.23775
H          2.12629        2.90485        0.44544
H          2.08341        2.61682        2.18183
C          1.98088        0.83389        0.96930
H          2.21856        0.16058        1.81279
H          0.88525        0.86536        0.87403
