34
OneHPyrrolo23bpyridine_H9_deriv1_Int1_Sub32.log	Energy: -965192.9557976
C         -0.58151       -1.47689       -0.20989
C         -0.48880       -0.93906       -1.53113
C          0.59673       -1.55166        0.58362
H         -1.37431       -1.02144       -2.16694
N          0.65109       -0.47007       -2.06675
C          1.77003       -1.03894        0.07061
Cl         0.54097       -2.25499        2.15139
C          1.69337       -0.51565       -1.27333
C          3.11741       -0.88354        0.52269
N          2.94731       -0.08096       -1.59180
C          3.78833       -0.29156       -0.52279
H          3.51809       -1.17100        1.48927
H          3.20614        0.36315       -2.46300
O          5.04530        0.09043       -0.67536
O         -3.17711       -0.05628        0.33084
C         -3.83776       -0.88380       -0.42584
O         -3.38194       -1.50934       -1.36713
C         -5.28704       -0.99806       -0.00645
H         -5.78863       -0.03196       -0.16461
H         -5.78324       -1.77638       -0.59804
H         -5.35607       -1.22719        1.06627
H         -1.46141       -2.06498        0.05392
Pd        -1.33723        0.56076        0.05028
O         -1.51031        2.61596        0.63390
C         -0.26811        2.72750        0.46447
O          0.37144        1.69567        0.07227
C          0.44798        4.00658        0.73528
H          1.44124        3.99713        0.27037
H         -0.14813        4.85209        0.36722
H          0.56055        4.12505        1.82378
C          5.90323       -0.12419        0.42341
H          5.54931        0.42568        1.31082
H          5.97071       -1.19765        0.66478
H          6.89106        0.24869        0.12966
