33
OneHPyrrolo23bpyridine_H9_Int1_Sub17.log	Energy: -816450.4970191
C          0.65043       -0.46172        1.84027
C          0.34443        0.69459        2.63452
C         -0.32099       -0.96733        0.93928
H          1.09761        1.05608        3.34208
N         -0.79082        1.34828        2.57592
C         -1.54695       -0.26050        0.87167
H         -0.18752       -1.93563        0.45203
C         -1.68342        0.87271        1.70297
C         -2.76093       -0.37034        0.13212
N         -2.91977        1.40754        1.47594
C         -3.57079        0.67060        0.52948
C         -3.06928       -1.37611       -0.91607
H         -3.26993        2.23605        1.93894
H         -4.57186        0.92746        0.19155
O          2.13703       -1.45284       -0.51278
C          3.24266       -1.66237        0.15288
O          3.62909       -0.97978        1.08433
C          4.00909       -2.85618       -0.36529
H          4.42964       -2.60983       -1.35172
H          4.82152       -3.10302        0.32825
H          3.34010       -3.71693       -0.50207
H          1.55829       -1.02039        2.07674
Pd         1.19411        0.24030       -0.17567
O          1.84366        1.52502       -1.72883
C          1.03693        2.39807       -1.30409
O          0.34247        2.10662       -0.27562
C          0.87073        3.70894       -1.99028
H          0.49002        4.46155       -1.28882
H          1.82486        4.02658       -2.42959
H          0.14194        3.58719       -2.80656
F         -4.32774       -1.26079       -1.34933
F         -2.90383       -2.62563       -0.46488
F         -2.26387       -1.24559       -1.97851
