42
OneHPyrrolo23bpyridine_H11_deriv1_Int1_Sub28.log	Energy: -991984.6032240
C          0.79493       -1.30017       -0.54001
C         -0.59619       -1.13621       -0.19804
C          0.93991       -0.69554       -1.81510
C         -1.22371       -0.44597       -1.25741
C         -1.40425       -1.42463        0.90250
H          1.77572       -0.79188       -2.50724
N         -0.27921       -0.22756       -2.23481
N         -2.48212       -0.05178       -1.31685
C         -2.73516       -1.03494        0.86270
Cl        -0.74926       -2.22206        2.27752
H         -0.44760        0.33288       -3.05975
C         -3.24153       -0.34651       -0.26298
H         -3.37701       -1.25307        1.71584
C         -4.70112        0.09943       -0.28596
O          3.56333       -0.21107       -0.76229
C          4.06991       -1.20294       -0.08012
O          3.48089       -1.84527        0.77073
C          5.50822       -1.48051       -0.45530
H          6.13950       -0.66166       -0.07874
H          5.83213       -2.42748       -0.00769
H          5.62675       -1.50676       -1.54732
H          1.51366       -1.96740       -0.05598
Pd         1.83128        0.57447       -0.22890
O          2.30345        2.42548        0.76117
C          1.06561        2.63606        0.85474
O          0.27273        1.77193        0.35064
C          0.52268        3.83156        1.56065
H         -0.47113        4.08688        1.17210
H          0.42638        3.59060        2.63068
H          1.21541        4.67661        1.46108
C         -5.02590        0.79748       -1.60498
H         -6.08028        1.11370       -1.60645
H         -4.39260        1.68273       -1.75411
H         -4.85878        0.12959       -2.46154
C         -5.61133       -1.12637       -0.12620
H         -5.44290       -1.64629        0.82878
H         -6.66791       -0.81745       -0.15512
H         -5.44585       -1.84951       -0.93940
C         -4.93923        1.07755        0.87405
H         -5.98266        1.42967        0.86296
H         -4.75449        0.60991        1.85284
H         -4.28080        1.95544        0.78884
