30
OneHPyrrolo23bpyridine_H11_deriv1_Int1_Sub2.log	Energy: -1181695.7823368
C         -0.05176       -1.22801       -0.24583
C         -1.48677       -1.07413       -0.13317
C          0.24710       -0.80197       -1.56724
C         -1.97294       -0.55430       -1.35464
C         -2.42567       -1.25642        0.88031
Cl         1.64192       -1.11607       -2.50012
N         -0.89870       -0.42755       -2.21189
N         -3.21587       -0.22928       -1.64648
C         -3.75406       -0.93941        0.60345
Cl        -1.94407       -1.83296        2.42348
H         -0.94187        0.00344       -3.12692
C         -4.08713       -0.43543       -0.66104
H         -4.52080       -1.07231        1.36702
H         -5.13103       -0.18349       -0.87498
O          2.63295        0.04602        0.26899
C          3.00101       -1.01316        0.92975
O          2.26299       -1.85769        1.40927
C          4.50684       -1.11042        1.03899
H          4.90408       -0.20975        1.52829
H          4.78035       -2.00585        1.60911
H          4.94695       -1.15386        0.03206
H          0.60980       -1.83151        0.39124
Pd         0.79367        0.71623        0.06273
O          0.95564        2.75257        0.72910
C         -0.25726        2.90171        0.42764
O         -0.87172        1.90348       -0.07994
C         -0.98040        4.17983        0.68026
H         -1.81654        4.29129       -0.02137
H         -1.38661        4.15462        1.70334
H         -0.28707        5.02708        0.60757
