30
OneHPyrrolo23bpyridine_H9_Int1_Sub2.log	Energy: -893375.9116149
C         -0.01185       -1.51547        0.14759
C         -1.01565       -1.46155        1.17927
C         -0.39313       -1.17419       -1.17598
Cl        -0.52845       -1.91746        2.77150
N         -2.24912       -1.09987        0.99736
C         -1.73482       -0.77626       -1.39201
H          0.29167       -1.36325       -2.00557
C         -2.57510       -0.75645       -0.25375
C         -2.52789       -0.36354       -2.50250
N         -3.80828       -0.35091       -0.65747
C         -3.78683       -0.11011       -2.00949
H         -2.21202       -0.25880       -3.53768
H         -4.59959       -0.24212       -0.03725
H         -4.68134        0.22802       -2.52790
O          2.29788       -0.10402       -1.17705
C          3.17888       -0.86264       -0.57958
O          3.02334       -1.39923        0.50180
C          4.45015       -1.00375       -1.38510
H          4.99334       -0.04705       -1.36464
H          5.07768       -1.79044       -0.94998
H          4.22150       -1.22625       -2.43644
H          0.94847       -1.98906        0.37202
Pd         0.71431        0.52005       -0.18638
O          1.15267        2.54881        0.25537
C         -0.00051        2.65305        0.75810
O         -0.74399        1.61769        0.74660
C         -0.49713        3.94005        1.31887
H         -1.28511        3.75421        2.05910
H          0.33485        4.50210        1.76182
H         -0.91855        4.54183        0.49884
