42
OneHPyrrolo23bpyridine_H9_deriv1_Int1_Sub20.log	Energy: -991970.1353970
C          0.92029       -1.45068        0.47888
C          0.26854       -0.68827        1.50273
C          0.13394       -1.94839       -0.59428
H          0.87126       -0.40103        2.36857
N         -1.02230       -0.36729        1.48359
C         -1.20160       -1.59577       -0.65369
Cl         0.84271       -2.95704       -1.78865
C         -1.70449       -0.78802        0.42836
C         -2.28781       -1.81566       -1.55104
N         -3.02406       -0.53717        0.17865
C         -3.35806       -1.15659       -1.01355
H         -2.27111       -2.38622       -2.47549
C         -3.89099        0.34536        0.99618
H         -4.36748       -1.08516       -1.40643
O          3.35825        0.15680        0.13084
C          3.80922       -0.11167        1.32328
O          3.12260       -0.30234        2.31187
C          5.32002       -0.15985        1.36394
H          5.71712        0.85317        1.20118
H          5.65230       -0.53377        2.33956
H          5.70658       -0.79416        0.55418
H          1.90140       -1.88076        0.68226
Pd         1.46713        0.54355       -0.21699
O          1.55126        2.46267       -1.16495
C          0.30575        2.39438       -1.32885
O         -0.28915        1.34431       -0.91338
C         -0.47345        3.50230       -1.95073
H         -0.91628        4.11287       -1.14860
H          0.18309        4.13810       -2.55683
H         -1.29200        3.09233       -2.55685
C         -5.28643        0.39877        0.38293
H         -5.91709        1.04396        1.00997
H         -5.27717        0.82872       -0.62985
H         -5.75948       -0.59421        0.34768
C         -3.98060       -0.22465        2.41288
H         -2.98602       -0.27120        2.87418
H         -4.62714        0.41652        3.02999
H         -4.41269       -1.23669        2.39518
C         -3.28126        1.74936        1.00280
H         -3.91843        2.42816        1.58875
H         -2.27685        1.73429        1.44483
H         -3.20170        2.13767       -0.02341
