33
OneHPyrrolo23bpyridine_H9_deriv1_Int1_Sub17.log	Energy: -1104758.0325113
C          0.93461       -1.46355        0.44384
C          0.33386       -0.67784        1.47744
C          0.11122       -1.95857       -0.60229
H          0.96287       -0.41228        2.33136
N         -0.96405       -0.34759        1.50423
C         -1.22196       -1.59102       -0.61513
Cl         0.76909       -2.97335       -1.81685
C         -1.66258       -0.77739        0.48076
C         -2.34740       -1.79805       -1.47760
N         -3.00087       -0.52264        0.26665
C         -3.39618       -1.13211       -0.92128
H         -2.36454       -2.37298       -2.39957
C         -3.78831        0.36518        1.05449
H         -4.42333       -1.03439       -1.26216
O          3.34018        0.30441        0.15127
C          3.83637       -0.12684        1.27604
O          3.19066       -0.55533        2.21657
C          5.34522       -0.03840        1.30143
H          5.64554        1.01981        1.29296
H          5.72874       -0.52539        2.20564
H          5.77117       -0.50379        0.40165
H          1.92512       -1.88605        0.61629
Pd         1.43255        0.57435       -0.20428
O          1.44567        2.47874       -1.17729
C          0.20504        2.35668       -1.35061
O         -0.34305        1.28433       -0.92443
C         -0.61068        3.39285       -2.04116
H         -1.61247        3.43531       -1.59385
H         -0.11292        4.36856       -1.98614
H         -0.71920        3.11075       -3.09978
F         -5.02994        0.36841        0.57869
F         -3.31957        1.60319        1.00276
F         -3.81953       -0.01422        2.31813
