34
OneHPyrrolo23bpyridine_H11_deriv1_Int1_Sub16.log	Energy: -965157.8560115
C          0.01246        1.06825       -0.91230
C          1.38588        1.09357       -0.46398
C         -0.07844       -0.04093       -1.79204
C          2.06549        0.00905       -1.06679
C          2.13012        1.87225        0.42114
H         -0.86210       -0.29149       -2.50618
N          1.15345       -0.62773       -1.88593
N          3.31477       -0.36476       -0.87018
C          3.46319        1.52788        0.63310
Cl         1.40583        3.19656        1.23802
O          1.39579       -1.75518       -2.57742
C          3.99305        0.40980       -0.02704
H          4.07985        2.11157        1.31682
H          5.03683        0.13212        0.15351
O         -2.75009        0.03812       -0.71295
C         -3.25188        1.22840       -0.51554
O         -2.67175        2.15167        0.02662
C         -4.66611        1.34721       -1.03572
H         -5.33261        0.74417       -0.40112
H         -4.98371        2.39616       -1.00907
H         -4.73829        0.94634       -2.05623
H         -0.70374        1.89007       -0.83150
Pd        -1.05649       -0.46306        0.16538
O         -1.59503       -1.76544        1.79403
C         -0.36629       -1.92500        2.01305
O          0.46098       -1.33735        1.23607
C          0.13110       -2.74001        3.15755
H          1.09710       -3.19752        2.90858
H          0.28069       -2.07321        4.02087
H         -0.60871       -3.50186        3.43231
C          1.39090       -2.90182       -1.72968
H          2.18271       -2.82358       -0.97068
H          0.40926       -3.02260       -1.24401
H          1.58846       -3.75020       -2.39587
