39
OneHPyrrolo23bpyridine_H11_Int1_Sub21.log	Energy: -679011.8137013
C         -0.25049       -1.34170        0.55076
C          1.13322       -0.91633        0.56309
C         -0.78832       -0.92510        1.79617
C          1.35697       -0.25934        1.79478
C          2.19854       -0.97946       -0.33068
H         -1.72950       -1.23111        2.25196
N          0.19012       -0.31183        2.52965
N          2.47966        0.31178        2.18282
C          3.40920       -0.39266        0.04582
H          2.07980       -1.46578       -1.30243
H          0.05720        0.17348        3.40698
C          3.47767        0.23223        1.30692
C          4.61444       -0.39975       -0.86804
H          4.42247        0.69924        1.61059
O         -3.10556       -0.83245        0.08922
C         -3.20282       -1.73359       -0.85000
O         -2.30823       -2.04709       -1.61606
C         -4.57549       -2.36538       -0.90234
H         -5.29542       -1.62445       -1.28119
H         -4.55923       -3.23444       -1.57055
H         -4.90741       -2.65618        0.10394
H         -0.69516       -2.07116       -0.12973
Pd        -1.52014        0.34810        0.12029
O         -2.14460        2.21025       -0.75442
C         -0.99885        2.66316       -0.49275
O         -0.17383        1.89409        0.10361
C         -0.58890        4.03998       -0.89226
H          0.20451        4.41009       -0.23102
H         -0.19640        4.00308       -1.92030
H         -1.45726        4.71068       -0.88188
H          5.42757        0.11081       -0.32344
C          5.08411       -1.82106       -1.17492
H          5.99609       -1.80701       -1.79167
H          5.30270       -2.37862       -0.25201
H          4.31730       -2.38310       -1.73198
C          4.34697        0.39133       -2.14836
H          4.03564        1.42208       -1.92270
H          5.24883        0.43359       -2.77868
H          3.54658       -0.07565       -2.74461
