33
OneHPyrrolo23bpyridine_H9_deriv1_Int1_Sub14.log	Energy: -918024.9345106
C          0.20169       -1.40234        0.50175
C          0.16864       -0.76906        1.78745
C         -0.99693       -1.45831       -0.26193
H          1.08257       -0.81438        2.38614
N         -0.91136       -0.18691        2.29961
C         -2.12556       -0.82331        0.22614
Cl        -1.00176       -2.31371       -1.75365
C         -1.98240       -0.21465        1.52455
C         -3.47968       -0.59329       -0.21154
N         -3.18290        0.32847        1.83598
C         -4.07326        0.11097        0.80268
C         -4.10954       -1.01542       -1.49476
H         -3.35947        0.83988        2.68996
H         -5.09466        0.48205        0.86470
O          2.74210       -0.37988       -0.56579
C          3.46165       -0.98620        0.33515
O          3.11360       -1.21507        1.48045
C          4.81985       -1.38773       -0.19462
H          5.41672       -0.48193       -0.37810
H          5.33028       -2.02325        0.53863
H          4.71884       -1.91025       -1.15602
H          1.02500       -2.07793        0.26739
Pd         1.04266        0.50129       -0.13399
O          1.36298        2.48928       -0.85003
C          0.16720        2.74837       -0.55373
O         -0.52948        1.81372       -0.03510
C         -0.43712        4.08370       -0.82399
H         -1.28705        4.26100       -0.15340
H          0.32138        4.86912       -0.71405
H         -0.79973        4.10206       -1.86336
H         -4.09440       -2.10962       -1.61226
H         -3.57725       -0.59323       -2.36087
H         -5.15560       -0.68150       -1.54145
