30
OneHPyrrolo23bpyridine_H9_Int1_Sub18.log	Energy: -893372.5910921
C          0.28806       -0.94937        1.56729
C         -0.31837       -0.09214        2.54793
C         -0.46690       -1.35854        0.43829
H          0.27065        0.19475        3.42509
N         -1.54313        0.36902        2.46760
C         -1.78908       -0.86413        0.35148
H         -0.10171       -2.13597       -0.23662
C         -2.23279       -0.00728        1.38638
C         -2.87230       -0.97993       -0.56302
N         -3.51244        0.36119        1.10417
C         -3.91027       -0.21662       -0.07518
Cl        -2.86590       -1.88436       -2.01658
H         -4.06094        0.98479        1.68144
H         -4.89904       -0.05057       -0.49444
O          2.18206       -1.08186       -0.70305
C          3.22366       -1.30631        0.05390
O          3.37847       -0.85301        1.17346
C          4.24120       -2.19857       -0.61779
H          4.72346       -1.63929       -1.43345
H          4.99891       -2.50915        0.11121
H          3.75285       -3.07415       -1.06727
H          1.25296       -1.40140        1.80678
Pd         0.91930        0.31089       -0.12017
O          1.49130        2.03611       -1.21344
C          0.50196        2.64152       -0.71540
O         -0.23634        1.99534        0.09778
C          0.18102        4.04886       -1.08235
H         -0.40227        4.52739       -0.28600
H          1.10568        4.60511       -1.28207
H         -0.42038        4.04276       -2.00457
