35
OneHPyrrolo23bpyridine_H9_deriv1_Int1_Sub23.log	Energy: -952707.7228092
C          0.59672       -1.46081        0.48746
C          0.11469       -0.71342        1.61232
C         -0.33831       -1.92184       -0.48106
H          0.84011       -0.46421        2.39150
N         -1.16258       -0.37042        1.78244
C         -1.66263       -1.54791       -0.34727
Cl         0.18508       -2.91199       -1.78064
C         -1.97168       -0.75972        0.81448
C         -2.88371       -1.72785       -1.07318
N         -3.30781       -0.49633        0.76829
C         -3.85259       -1.07498       -0.36152
H         -3.01511       -2.27783       -2.00097
N         -4.00274        0.31049        1.64491
H         -4.91804       -0.96034       -0.54918
O          2.99278        0.12479       -0.14227
C          3.60076       -0.19473        0.96521
O          3.05490       -0.41687        2.03175
C          5.10131       -0.26057        0.79246
H          5.48743        0.75246        0.60547
H          5.56064       -0.66917        1.70024
H          5.36089       -0.87345       -0.08191
H          1.58848       -1.91097        0.54064
Pd         1.07983        0.54742       -0.21452
O          1.07424        2.48132       -1.12971
C         -0.18344        2.43595       -1.13511
O         -0.73935        1.39659       -0.64553
C         -1.00656        3.53558       -1.71328
H         -2.03865        3.47618       -1.34656
H         -0.55836        4.50741       -1.46850
H         -1.01137        3.43357       -2.80931
H         -3.74692        0.02014        2.58717
C         -3.70674        1.72424        1.45264
H         -4.24587        2.28952        2.22572
H         -4.08746        2.04487        0.47176
H         -2.63003        1.95795        1.51038
