30
OneHPyrrolo23bpyridine_H9_Int1_Sub10.log	Energy: -893372.8853626
C          0.10185       -1.47704        0.31771
C         -0.07412       -0.93114        1.63197
C         -1.02776       -1.56631       -0.53977
H          0.79238       -0.95573        2.29853
N         -1.23186       -0.46275        2.09532
C         -2.23206       -1.04885       -0.09711
Cl        -0.88711       -2.30357       -2.08250
C         -2.23664       -0.51781        1.23995
C         -3.55675       -0.89811       -0.61735
N         -3.50221       -0.08842        1.48393
C         -4.29125       -0.30889        0.37476
H         -3.90942       -1.19111       -1.60242
H         -3.78571        0.34996        2.34996
H         -5.34149       -0.02408        0.38001
O          2.63569       -0.18099       -0.43100
C          3.32546       -0.80811        0.47915
O          2.90408       -1.16062        1.56688
C          4.75071       -1.05992        0.04156
H          5.28544       -0.09992       -0.01206
H          5.24831       -1.71908        0.76265
H          4.77232       -1.50038       -0.96491
H          0.99408       -2.06725        0.10611
Pd         0.84030        0.53388       -0.09325
O          1.06269        2.58249       -0.65111
C         -0.17071        2.73393       -0.44794
O         -0.83302        1.71793       -0.05167
C         -0.85234        4.03681       -0.68942
H         -1.76293        4.10953       -0.08190
H         -0.16714        4.86608       -0.47251
H         -1.13400        4.09457       -1.75218
