42
OneHPyrrolo23bpyridine_H9_deriv1_Int1_Sub4.log	Energy: -991975.7353104
C         -0.13624       -0.76897        1.01834
C          0.66961       -1.72101        0.27426
C          0.49380        0.34167        1.64118
C          0.01477       -2.93891       -0.36520
N          1.96025       -1.54540        0.09903
C          1.86848        0.53768        1.42473
Cl        -0.32085        1.28262        2.83003
C          2.50509       -0.45249        0.63546
C          2.86326        1.48292        1.81351
N          3.81780       -0.11275        0.55264
C          4.03966        1.05120        1.25254
H          2.72150        2.36924        2.42619
H          4.50292       -0.64622        0.03441
H          5.03405        1.48936        1.30103
O         -2.28751        1.15206        0.42072
C         -3.22588        0.25343        0.45104
O         -3.10835       -0.89707        0.05858
C         -4.50886        0.78089        1.04972
H         -4.87923        1.62276        0.44717
H         -5.25947       -0.01735        1.08343
H         -4.31572        1.16563        2.06153
H         -1.13467       -1.06632        1.33696
Pd        -0.58280        0.75194       -0.47175
O         -0.69438        1.88372       -2.26463
C          0.47649        1.50631       -2.54192
O          1.06003        0.73322       -1.71313
C          1.17652        1.95806       -3.77720
H          1.76324        1.13096       -4.19829
H          0.45272        2.33717       -4.50851
H          1.87410        2.76736       -3.51224
C          1.07686       -3.99971       -0.65608
H          0.60150       -4.87396       -1.12575
H          1.85265       -3.61409       -1.33007
H          1.57415       -4.33133        0.26824
C         -1.06796       -3.52862        0.54665
H         -1.92534       -2.84895        0.65316
H         -1.44746       -4.46134        0.10245
H         -0.66615       -3.77229        1.54317
C         -0.63013       -2.48232       -1.68697
H         -1.04200       -3.35487       -2.21848
H         -1.45585       -1.78087       -1.49180
H          0.11463       -1.99804       -2.33674
