33
OneHPyrrolo23bpyridine_H11_deriv1_Int1_Sub14.log	Energy: -918028.3248062
C          0.12286       -1.16220        0.69254
C          1.50320       -0.96810        0.32116
C         -0.07799       -0.32128        1.81734
C          2.05536       -0.02110        1.21588
C          2.34411       -1.43844       -0.68562
H         -0.91597       -0.32968        2.51455
N          1.08345        0.33429        2.13000
N          3.28288        0.46501        1.19780
C          3.65160       -0.95908       -0.72343
Cl         1.76831       -2.56014       -1.85157
C          1.22626        1.40392        3.08463
C          4.06017       -0.01859        0.23275
H          4.34201       -1.30292       -1.49386
H          5.08672        0.36141        0.19875
O         -2.71489       -0.31611        0.64823
C         -3.11609       -1.45327        0.14644
O         -2.45330       -2.17430       -0.57752
C         -4.53016       -1.79470        0.55897
H         -5.22566       -1.10863        0.05269
H         -4.76086       -2.82749        0.27242
H         -4.66364       -1.65337        1.64043
H         -0.52531       -1.98044        0.36820
Pd        -1.04582        0.51403       -0.00345
O         -1.64792        2.14313       -1.27895
C         -0.43011        2.43986       -1.39206
O          0.41955        1.73328       -0.75124
C          0.03194        3.55248       -2.26988
H          0.95756        3.99039       -1.87523
H          0.24499        3.14226       -3.26922
H         -0.75457        4.31090       -2.36751
H          0.78920        2.33740        2.69648
H          2.29818        1.56115        3.25654
H          0.73513        1.13614        4.03012
