35
OneHPyrrolo23bpyridine_H11_Int1_Sub23.log	Energy: -664420.6560296
C         -0.03738       -1.30714        0.58999
C          1.35524       -0.92538        0.47801
C         -0.47478       -0.79887        1.84394
C          1.67868       -0.20256        1.64304
C          2.34782       -1.09689       -0.48663
H         -1.39472       -1.03831        2.37610
N          0.56323       -0.17083        2.46326
N          2.84665        0.35186        1.91010
C          3.60129       -0.51991       -0.23459
H          2.14277       -1.64825       -1.40479
H          0.50314        0.37896        3.30973
C          3.77758        0.19047        0.98529
N          4.64453       -0.59555       -1.12301
H          4.75527        0.64639        1.18786
O         -2.89033       -0.77392        0.25061
C         -3.06299       -1.72520       -0.62518
O         -2.22836       -2.09768       -1.43158
C         -4.44392       -2.33732       -0.54587
H         -5.18100       -1.60575       -0.90960
H         -4.48681       -3.23991       -1.16685
H         -4.70489       -2.57108        0.49564
H         -0.54075       -2.07389       -0.00232
Pd        -1.28860        0.37817        0.11213
O         -1.94285        2.20718       -0.81624
C         -0.77543        2.65022       -0.65281
O          0.07576        1.89816       -0.07283
C         -0.37178        3.99801       -1.14858
H          0.46804        4.38679       -0.55926
H         -0.04666        3.90215       -2.19611
H         -1.22768        4.68393       -1.11754
H          5.55522       -0.34923       -0.76355
C          4.59909       -1.41470       -2.29689
H          5.55210       -1.33075       -2.83555
H          3.80348       -1.08319       -2.98585
H          4.42307       -2.48625       -2.07620
