39
OneHPyrrolo23bpyridine_H11_Int1_Sub13.log	Energy: -679014.4998246
C         -0.12898       -0.87378       -1.14275
C         -1.50245       -0.52257       -0.85292
C          0.29815        0.03152       -2.14805
C         -1.83486        0.56751       -1.68710
C         -2.45988       -0.97922        0.06550
H          1.19043       -0.03430       -2.76979
N         -0.74182        0.85523       -2.47863
N         -2.98009        1.22470       -1.71609
C         -3.68041       -0.30030        0.02935
C         -2.13330       -2.08201        1.04359
H         -0.69125        1.66068       -3.08826
C         -3.88645        0.76857       -0.85679
H         -4.49242       -0.58406        0.69946
H         -4.85336        1.28386       -0.85665
O          2.73060       -0.55617       -0.69903
C          2.87757       -1.70938       -0.10853
O          2.04576       -2.23302        0.61470
C          4.21344       -2.35036       -0.40439
H          5.00094       -1.79152        0.12332
H          4.21188       -3.39085       -0.05882
H          4.44069       -2.29824       -1.47805
H          0.36572       -1.80795       -0.87415
Pd         1.17246        0.53494       -0.15754
O          1.86096        1.88258        1.36910
C          0.70119        2.37335        1.39381
O         -0.16187        1.90765        0.57743
C          0.31649        3.43769        2.36422
H         -0.42480        4.11127        1.91527
H         -0.14612        2.95893        3.24118
H          1.20406        3.99082        2.69461
H         -1.63337       -2.87863        0.46380
C         -1.12451       -1.58144        2.08546
H         -0.93505       -2.36648        2.83288
H         -0.15529       -1.32997        1.63148
H         -1.51492       -0.69380        2.60765
C         -3.36060       -2.68844        1.71026
H         -4.10307       -3.03119        0.97359
H         -3.06716       -3.55356        2.32264
H         -3.85274       -1.96699        2.38190
