48
Oxazole_H7_deriv1_Int1_Sub3.log	Energy: -742278.8076843
C          0.09406        0.17289       -1.54099
C         -0.48071        0.90409       -0.47883
O          1.27635        0.79741       -1.84329
C         -1.89309        0.93975        0.00869
N          0.40614        1.90731       -0.13039
C          1.40762        1.79016       -0.94368
C          2.64693        2.61679       -0.99296
O         -1.26927       -2.06315       -0.07299
C         -1.65570       -2.58670       -1.20293
O         -1.14084       -2.39144       -2.29092
C         -2.85456       -3.49166       -1.02916
H         -3.64470       -2.97465       -0.46644
H         -3.22615       -3.80955       -2.01029
H         -2.56086       -4.37244       -0.43920
H         -0.32408       -0.52221       -2.27628
Pd         0.43947       -1.09476        0.12746
O          1.57646       -2.31270        1.50701
C          2.48176       -1.44321        1.45275
O          2.28315       -0.42086        0.71001
C          3.76727       -1.58778        2.19343
H          4.53507       -1.95727        1.49624
H          4.09691       -0.61128        2.57201
H          3.65646       -2.30835        3.01247
H          2.49889        3.31804       -1.83759
C          2.79724        3.42427        0.28913
H          3.67129        4.08750        0.21783
H          1.90513        4.03308        0.48756
H          2.93753        2.74910        1.14660
C          3.87627        1.76304       -1.30084
H          3.76710        1.22699       -2.25364
H          4.76815        2.40295       -1.36410
H          4.02539        1.01704       -0.50696
H         -2.39765        0.03320       -0.35701
C         -2.59505        2.16893       -0.58962
H         -2.55611        2.12027       -1.69012
H         -2.03427        3.07118       -0.29047
C         -4.03735        2.26832       -0.10742
H         -4.51007        3.17057       -0.52782
H         -4.61001        1.40716       -0.49662
C         -4.11875        2.27979        1.41476
H         -5.17024        2.31859        1.74206
H         -3.63889        3.19945        1.79562
C         -3.41854        1.06500        2.01316
H         -3.96405        0.14903        1.72272
H         -3.44783        1.10574        3.11370
C         -1.97585        0.95500        1.53684
H         -1.38300        1.80714        1.91096
H         -1.50891        0.04040        1.93602
