44
Oxazole_H6_deriv1_Int1_Sub5.log	Energy: -693727.9494344
C          0.06574       -0.93235       -1.20880
C          0.08833       -1.26794        0.16307
N         -1.23821       -0.66673       -1.58355
O         -1.22035       -1.19738        0.57449
C          0.99316       -2.14094        0.97864
C         -1.93861       -0.81578       -0.50715
C         -3.41835       -0.66267       -0.33487
O          2.72709        0.35856        0.00790
C          3.41186       -0.40447       -0.79377
O          2.95143       -1.16122       -1.63166
C          4.90113       -0.26840       -0.56700
H          5.21445        0.75957       -0.80070
H          5.13905       -0.44607        0.49143
H          5.44047       -0.97852       -1.20464
H          0.89321       -1.07756       -1.90733
Pd         0.80557        0.77715       -0.03708
O          0.84958        2.89296        0.43610
C         -0.40581        2.87252        0.42145
O         -0.98049        1.75628        0.17409
C         -1.22745        4.08495        0.69868
H         -2.04277        4.15799       -0.03393
H         -1.68252        3.98626        1.69601
H         -0.60162        4.98465        0.67370
C         -3.71709        0.02735        1.00049
H         -4.80452        0.15163        1.11315
H         -3.34846       -0.56635        1.84922
H         -3.23627        1.01447        1.03899
C         -3.96357        0.16254       -1.49873
H         -3.73068       -0.30889       -2.46327
H         -5.05557        0.26010       -1.40524
H         -3.51573        1.16664       -1.50037
C         -4.03039       -2.07424       -0.34405
H         -5.12109       -2.00626       -0.21221
H         -3.82977       -2.58556       -1.29740
H         -3.62485       -2.68947        0.47334
H          1.95594       -2.13363        0.44933
C          1.18053       -1.62162        2.39994
H          1.81822       -2.30917        2.97499
H          1.66073       -0.63255        2.39746
H          0.21371       -1.54042        2.92046
C          0.44636       -3.57068        0.95636
H          0.32796       -3.93781       -0.07389
H          1.13938       -4.24568        1.48002
H         -0.53113       -3.62820        1.45887
