47
Oxazole_H6_deriv1_Int1_Sub4.log	Energy: -718376.5647188
C          0.08163       -0.88760       -1.18910
C         -0.08330       -1.35010        0.13494
N         -1.14240       -0.45008       -1.66772
O         -1.41105       -1.15898        0.41628
C          0.61775       -2.37566        1.00179
C         -1.96712       -0.60689       -0.68673
C         -3.43359       -0.29884       -0.65580
O          2.67871        0.12353        0.00298
C          3.24853        0.24777       -1.16845
O          2.65993        0.51053       -2.20013
C          4.73660       -0.00952       -1.11378
H          5.19945        0.58913       -0.31716
H          4.91717       -1.06875       -0.87448
H          5.18771        0.22762       -2.08436
H          0.93688       -1.01255       -1.85289
Pd         0.79446        0.69066        0.14890
O          0.95873        2.69524        0.88812
C         -0.29807        2.75654        0.90270
O         -0.94685        1.71141        0.55933
C         -1.02294        4.00610        1.26781
H         -1.28382        4.54066        0.34125
H         -1.95512        3.76609        1.79558
H         -0.38174        4.65373        1.87782
C         -3.86890        0.06199        0.76656
H         -4.94086        0.30951        0.76888
H         -3.70859       -0.77445        1.46184
H         -3.30077        0.92747        1.13476
C         -3.70264        0.86507       -1.61023
H         -3.36557        0.62688       -2.62827
H         -4.78055        1.08523       -1.63407
H         -3.16228        1.76282       -1.27725
C         -4.17459       -1.56081       -1.13076
H         -5.26025       -1.37864       -1.12427
H         -3.87470       -1.83089       -2.15408
H         -3.96826       -2.41662       -0.46978
C          0.92973       -1.78588        2.38164
H          1.32834       -2.57030        3.04310
H          1.68173       -0.98674        2.30408
H          0.02378       -1.37132        2.84902
C         -0.34413       -3.56589        1.15369
H         -0.62933       -3.97622        0.17254
H          0.15634       -4.36388        1.72225
H         -1.26054       -3.28135        1.68863
C          1.89950       -2.85734        0.32303
H          2.36849       -3.63299        0.94666
H          1.68683       -3.29954       -0.66231
H          2.61075       -2.03198        0.20085
