35
Oxazole_H7_deriv1_Int1_Sub6.log	Energy: -619777.9977716
C         -0.16240       -1.46081        0.60293
C          0.05475       -1.62281       -0.78335
O          1.07774       -1.37064        1.17882
C         -0.85876       -2.11476       -1.84882
N          1.41843       -1.55722       -1.00580
C          1.95842       -1.39920        0.16150
C          3.40515       -1.25457        0.48862
O         -2.56491       -0.03420       -0.39857
C         -3.28248       -0.46143        0.60428
O         -2.84527       -0.81144        1.68736
C         -4.75958       -0.48223        0.28363
H         -4.93849       -0.97605       -0.68171
H         -5.30658       -0.99222        1.08520
H         -5.12097        0.55270        0.18979
H         -1.00952       -1.67562        1.26132
Pd        -0.66494        0.45441       -0.16045
O         -0.62848        2.60302       -0.34210
C          0.61967        2.54808       -0.20371
O          1.15194        1.39475       -0.05540
C          1.46927        3.77230       -0.17703
H          1.67769        4.03226        0.87234
H          2.42847        3.57776       -0.67444
H          0.94468        4.61053       -0.65092
H          3.71649       -2.24001        0.88734
C          4.20855       -0.96241       -0.77121
H          5.28203       -0.93094       -0.53557
H          4.03694       -1.72407       -1.54343
H          3.91258        0.01056       -1.19128
C          3.62650       -0.21300        1.58498
H          3.07658       -0.46821        2.50127
H          4.69667       -0.15124        1.82952
H          3.27897        0.77289        1.24392
H         -0.65566       -1.58708       -2.79070
H         -1.91024       -1.97586       -1.57727
H         -0.65403       -3.18447       -2.01610
