39
Oxazole_H7_Int1_Sub11.log	Energy: -668323.8678509
C         -0.70122       -1.50631        0.59561
C         -0.58552       -1.58560       -0.80260
O          0.56400       -1.36972        1.07418
H         -1.34023       -1.91209       -1.51769
N          0.75184       -1.47597       -1.13951
C          1.37298       -1.33631       -0.01346
C          2.82547       -1.14827        0.22448
O         -3.20919       -0.37886       -0.59487
C         -3.91515       -0.94572        0.34538
O         -3.50239       -1.24998        1.45163
C         -5.34444       -1.18887       -0.08004
H         -5.37863       -1.64260       -1.08001
H         -5.84599       -1.82983        0.65445
H         -5.86720       -0.22266       -0.14255
H         -1.50745       -1.75222        1.29366
Pd        -1.42001        0.35722       -0.21295
O         -1.66840        2.49340       -0.23485
C         -0.42575        2.59326       -0.06807
O          0.24945        1.51154        0.02669
C          0.26487        3.91177       -0.00314
H          0.99975        3.90793        0.81329
H          0.81200        4.07172       -0.94468
H         -0.46441        4.71878        0.13334
H          3.15076       -2.01249        0.83703
C          3.10287        0.12233        1.04487
H          2.55302        0.07706        1.99714
H          2.69482        0.98464        0.49267
C          4.59654        0.29801        1.28605
H          4.77502        1.23168        1.84309
H          4.96157       -0.52148        1.93161
C          5.38211        0.29585       -0.02077
H          6.46128        0.39258        0.17925
H          5.09457        1.18070       -0.61694
C          5.10179       -0.96478       -0.83147
H          5.49173       -1.84268       -0.28473
H          5.64223       -0.93496       -1.79080
C          3.61088       -1.15062       -1.08504
H          3.22947       -0.33297       -1.71987
H          3.41488       -2.08103       -1.63890
