26
Oxazole_H7_Int1_Sub6.log	Energy: -545820.0102647
C          0.46588        1.51880        0.79577
C          0.28773        1.88701       -0.55562
O         -0.60934        2.02117        1.48186
C          1.26345        1.94894       -1.67679
N         -0.92669        2.55756       -0.65193
C         -1.38472        2.58689        0.55035
H         -2.32894        3.01099        0.89114
O          1.71885       -0.83994       -0.54470
C          2.62614       -0.92145        0.38988
O          2.51572       -0.48032        1.52146
C          3.86973       -1.64026       -0.07970
H          4.20035       -1.24735       -1.05121
H          4.66346       -1.53744        0.66945
H          3.63416       -2.70526       -0.22412
H          1.33401        1.19383        1.37858
Pd        -0.13605       -0.30686       -0.12094
O         -1.27021       -2.11193       -0.35748
C         -2.30172       -1.44615       -0.07864
O         -2.15402       -0.19919        0.15978
C         -3.64827       -2.07615        0.00927
H         -3.80554       -2.42208        1.04270
H         -4.42876       -1.34387       -0.23257
H         -3.70266       -2.94575       -0.65731
H          0.77053        1.67514       -2.61959
H          2.11517        1.28194       -1.51046
H          1.61587        2.98822       -1.77440
