32
Oxazole_H6_Int1_Sub13.log	Energy: -595122.9656764
C         -0.04431       -1.43450       -0.73392
C         -0.01726       -1.41863        0.67010
N         -1.34209       -1.20493       -1.15167
O         -1.30308       -1.21259        1.07352
H          0.69281       -1.84522        1.37495
C         -2.02544       -1.06219       -0.06211
C         -3.47154       -0.75019        0.09230
O          2.69103       -0.02895       -0.20001
C          3.22513       -1.20298       -0.02450
O          2.61882       -2.21976        0.26650
C          4.72326       -1.18064       -0.22474
H          4.96214       -0.79436       -1.22593
H          5.18291       -0.49665        0.50337
H          5.12904       -2.19134       -0.10023
H          0.73245       -1.81088       -1.39727
Pd         0.80649        0.46391        0.01103
O          0.95430        2.61930        0.05234
C         -0.29850        2.65417        0.14691
O         -0.92287        1.53859        0.18808
C         -1.05520        3.93726        0.17622
H         -1.30829        4.21781       -0.85800
H         -1.98952        3.81763        0.73920
H         -0.43431        4.73238        0.60715
H         -3.50009        0.16156        0.71479
C         -4.10771       -0.45167       -1.25615
H         -5.16503       -0.18057       -1.12296
H         -3.59112        0.37674       -1.75999
H         -4.05372       -1.32836       -1.91830
C         -4.18595       -1.86994        0.85321
H         -3.71043       -2.06317        1.82536
H         -5.23490       -1.59324        1.03343
H         -4.17611       -2.80475        0.27141
