35
Oxazole_H7_deriv1_Int1_Sub14.log	Energy: -619773.9331908
C         -0.03221       -1.46367        0.44753
C          0.05928       -1.41347       -0.95349
O          1.21972       -1.22070        0.91811
H         -0.66946       -1.76466       -1.68372
N          1.36688       -1.12052       -1.29767
C          1.99388       -1.00098       -0.17299
C          3.43735       -0.68397        0.06258
O         -2.67902       -0.53499       -0.60297
C         -3.29320       -1.25069        0.29946
O         -2.82066       -1.59391        1.36984
C         -4.69727       -1.61831       -0.12045
H         -4.70609       -1.99525       -1.15237
H         -5.10692       -2.36559        0.56918
H         -5.32440       -0.71446       -0.09845
H         -0.78926       -1.85513        1.13421
Pd        -0.97410        0.36667       -0.19260
O         -1.46048        2.45528       -0.04136
C         -0.23360        2.68343        0.11539
O          0.56191        1.68211        0.10944
C          0.30287        4.05972        0.30926
H          0.78238        4.12384        1.29710
H          1.07593        4.26022       -0.44626
H         -0.50278        4.79911        0.23550
C          4.11351       -1.94894        0.61635
C          4.07475       -0.27412       -1.26284
H          5.14270       -0.06026       -1.10760
H          3.98009       -1.07007       -2.01450
H          3.59116        0.62621       -1.66790
C          3.54192        0.45526        1.08557
H          3.10479        0.16381        2.05137
H          4.60134        0.70554        1.24630
H          3.00953        1.34794        0.72937
H          5.17580       -1.74190        0.81587
H          4.05548       -2.77822       -0.10475
H          3.64464       -2.27200        1.55750
