44
Oxazole_H6_deriv1_Int1_Sub12.log	Energy: -693716.8805313
C         -0.43131       -1.44518        0.78146
C         -0.66075       -1.46252       -0.60351
N          0.90530       -1.17458        0.99951
O          0.54176       -1.21882       -1.18683
H         -1.48437       -1.83785       -1.21809
C          1.42791       -1.02435       -0.17560
C          2.84748       -0.74082       -0.58716
O         -3.16761       -0.48943        0.75943
C         -3.88666       -1.20546       -0.06162
O         -3.53936       -1.56575       -1.17352
C         -5.24097       -1.54843        0.51383
H         -5.14203       -1.91216        1.54576
H         -5.85556       -0.63636        0.54750
H         -5.73275       -2.29838       -0.11670
H         -1.08883       -1.79952        1.57474
Pd        -1.50097        0.37009        0.15024
O         -1.92539        2.48217        0.09603
C         -0.72166        2.66716       -0.21682
O          0.02436        1.63561       -0.34190
C         -0.15008        4.02684       -0.42583
H          0.59649        4.22415        0.35802
H          0.36944        4.06334       -1.39371
H         -0.93998        4.78561       -0.38559
C          2.80863        0.21330       -1.79312
H          3.81843        0.34882       -2.20061
H          2.17980       -0.20291       -2.59084
H          2.39162        1.19186       -1.52184
C          3.69780       -0.14372        0.60118
H          2.97689       -1.58774        2.08367
H          4.44399       -0.70115        2.55379
C          3.92508       -1.18073        1.70941
C          3.40287       -2.09728       -1.07174
H          4.45040       -1.99283       -1.38742
H          3.35082       -2.86712       -0.29029
H          2.82619       -2.45201       -1.93829
H          4.56152       -2.01151        1.37003
C          5.07529        0.29857        0.08858
H          5.01380        1.16696       -0.58275
H          5.69899        0.59424        0.94577
H          5.61003       -0.50670       -0.43750
C          3.01359        1.08647        1.21186
H          3.68026        1.53519        1.96453
H          2.79947        1.85554        0.45597
H          2.06921        0.82500        1.70504
