32
Oxazole_H7_Int1_Sub13.log	Energy: -595123.8461921
C         -0.08717       -1.54002        0.56424
C          0.04859       -1.58340       -0.83360
O          1.17394       -1.45781        1.06563
H         -0.70470       -1.86352       -1.56960
N          1.39404       -1.50662       -1.14647
C          2.00060       -1.41696       -0.00775
C          3.45944       -1.28016        0.25641
O         -2.53348       -0.28278       -0.62765
C         -3.27364       -0.84944        0.28608
O         -2.88814       -1.20217        1.38779
C         -4.70503       -1.02454       -0.16484
H         -4.74220       -1.45205       -1.17621
H         -5.24233       -1.66291        0.54622
H         -5.18811       -0.03701       -0.21069
H         -0.91249       -1.77704        1.24281
Pd        -0.72299        0.37149       -0.20111
O         -0.88637        2.51524       -0.16819
C          0.35592        2.56171        0.02224
O          0.98762        1.45186        0.09304
C          1.09213        3.84850        0.16986
H          1.54704        3.89079        1.17042
H          1.90830        3.88893       -0.56559
H          0.41238        4.69703        0.03155
H          3.75918       -2.21952        0.75959
C          4.23091       -1.15090       -1.04867
H          5.31097       -1.11905       -0.84564
H          4.02352       -1.99107       -1.72517
H          3.94707       -0.22618       -1.57271
C          3.73460       -0.12528        1.22207
H          3.20183       -0.26244        2.17331
H          4.81207       -0.06570        1.43337
H          3.40012        0.82574        0.78347
