44
Oxazole_H7_deriv1_Int1_Sub4.log	Energy: -693725.0969332
C         -0.22148       -0.86287        1.10608
C          0.04760       -1.53061       -0.11063
O          1.00956       -0.68903        1.71349
C         -0.84474       -2.27372       -1.07363
N          1.40772       -1.64813       -0.24146
C          1.91558       -1.13621        0.84140
C          3.35803       -1.00849        1.19326
O         -2.44917        0.94241        0.05795
C         -3.19626        0.57840        1.05803
O         -2.84182       -0.06867        2.03132
C         -4.63485        1.00992        0.87870
H         -5.10174        0.37423        0.11054
H         -5.17819        0.89027        1.82344
H         -4.68853        2.04775        0.52408
H         -1.11431       -0.81759        1.74738
Pd        -0.48335        0.85666       -0.09475
O         -0.04247        2.76084       -1.04842
C          1.17025        2.44550       -0.99584
O          1.47010        1.30927       -0.48590
C          2.25205        3.35388       -1.47253
H          2.68096        3.87730       -0.60399
H          3.05350        2.77217       -1.94666
H          1.84505        4.09831       -2.16724
H          3.56157       -1.83554        1.90159
C          4.22687       -1.20018       -0.04237
H          5.29031       -1.17080        0.23532
H          4.01611       -2.15743       -0.53738
H          4.02915       -0.39808       -0.76902
C          3.63878        0.30904        1.91423
H          3.03442        0.40813        2.82632
H          4.70045        0.36245        2.19480
H          3.40137        1.15583        1.25400
C         -0.54950       -1.79253       -2.49840
H         -1.11371       -2.39816       -3.22381
H         -0.84794       -0.73987       -2.62298
H          0.52276       -1.87696       -2.72534
C         -0.44895       -3.75578       -0.93920
H         -0.64860       -4.12767        0.07764
H         -1.04234       -4.35715       -1.64457
H          0.61753       -3.90049       -1.15990
C         -2.32686       -2.11484       -0.75210
H         -2.91171       -2.79033       -1.39399
H         -2.54901       -2.36602        0.29570
H         -2.66548       -1.08733       -0.93678
