35
Oxazole_H6_Int1_Sub4.log	Energy: -619768.8706012
C         -0.80475        0.39641       -1.46932
C         -1.09235        1.14091       -0.30460
N         -0.06526        1.19270       -2.33916
O         -0.49491        2.35906       -0.49650
C         -2.18941        1.11047        0.73846
C          0.09431        2.29633       -1.70491
H          0.65442        3.17608       -2.01922
O         -0.50679       -1.84728        0.52029
C         -0.62763       -2.77450       -0.39565
O         -0.26717       -2.65433       -1.55118
C         -1.30347       -4.01879        0.13117
H         -1.28214       -4.80254       -0.63497
H         -0.80582       -4.36341        1.04821
H         -2.34752       -3.78802        0.39257
H         -1.23750       -0.54626       -1.80273
Pd         0.59599       -0.27577        0.06292
O          2.48129       -0.75009        0.94182
C          2.90767        0.36631        0.54231
O          2.08491        1.12762       -0.06867
C          4.32468        0.78146        0.73437
H          4.90849        0.43690       -0.13328
H          4.39902        1.87479        0.78885
H          4.73749        0.31184        1.63583
C         -1.58762        1.09700        2.14838
H         -2.38861        1.19733        2.89663
H         -1.05673        0.15246        2.33887
H         -0.88264        1.93043        2.28743
C         -3.02847        2.38462        0.54660
H         -3.43354        2.44615       -0.47528
H         -3.87696        2.36506        1.24660
H         -2.43974        3.29165        0.74038
C         -3.08271       -0.11145        0.52628
H         -3.89439       -0.09805        1.26877
H         -3.54075       -0.10108       -0.47460
H         -2.51197       -1.03950        0.65124
