41
Oxazole_H7_deriv1_Int1_Sub5.log	Energy: -669078.3832284
C          0.16615       -0.96557       -1.14231
C          0.05106       -1.49807        0.16012
O         -1.11096       -0.85073       -1.62660
C          1.07049       -2.19088        1.01596
N         -1.29718       -1.62675        0.44348
C         -1.92080       -1.22692       -0.61895
C         -3.39249       -1.14708       -0.84076
O          2.49343        0.39573        0.14714
C          3.20601        0.25244       -0.93608
O          2.76311        0.09390       -2.06107
C          4.69018        0.30232       -0.65274
H          4.94517       -0.36751        0.18037
H          5.25016        0.02758       -1.55427
H          4.96338        1.32223       -0.34365
H          0.99065       -0.91921       -1.86072
Pd         0.54734        0.72421        0.08538
O          0.32419        2.73833        0.83426
C         -0.91881        2.59325        0.71906
O         -1.34986        1.47148        0.28128
C         -1.87883        3.68622        1.04380
H         -2.17295        4.18511        0.10745
H         -2.78450        3.26951        1.50373
H         -1.40753        4.42369        1.70439
H         -3.64460       -2.02877       -1.46212
C         -4.13535       -1.25618        0.48378
H         -5.22066       -1.27060        0.30828
H         -3.85225       -2.16593        1.02977
H         -3.89438       -0.39447        1.12423
C         -3.77077        0.10662       -1.62849
H         -3.26163        0.14099       -2.60147
H         -4.85589        0.12248       -1.80510
H         -3.48589        1.00640       -1.06434
H          2.06315       -1.89792        0.64721
C          0.94399       -1.77330        2.47668
H          1.65927       -2.33272        3.09751
H          1.15326       -0.70024        2.59950
H         -0.07195       -1.97236        2.84906
C          0.89286       -3.70077        0.83874
H          1.00892       -3.99981       -0.21393
H          1.64529       -4.24186        1.43198
H         -0.10594       -4.01517        1.17737
