26
Oxazole_H7_Int1_Sub9.log	Energy: -732553.9570479
C         -0.06194       -1.46452        0.49949
C          0.00883       -1.45083       -0.90389
O          1.19892       -1.22271        0.95165
H         -0.72701       -1.81905       -1.61820
N          1.32215       -1.18393       -1.27328
C          1.93543       -1.04265       -0.15606
C          3.39500       -0.72062        0.05221
O         -2.69947       -0.43551       -0.60042
C         -3.32351       -1.15193        0.29581
O         -2.83952       -1.54347        1.34446
C         -4.75045       -1.44768       -0.09841
H         -4.80576       -1.76468       -1.14862
H         -5.16557       -2.21681        0.56330
H         -5.34269       -0.52503       -0.00415
H         -0.82546       -1.81252        1.20336
Pd        -0.95061        0.37968       -0.20271
O         -1.32487        2.47864       -0.04473
C         -0.08484        2.64243        0.10711
O          0.65004        1.59536        0.08866
C          0.51692        3.98347        0.33223
H          0.46540        4.21240        1.40804
H          1.56990        3.98586        0.02481
H         -0.05557        4.74835       -0.20745
F          3.96004       -0.39294       -1.09376
F          4.02463       -1.78292        0.55328
F          3.53379        0.28131        0.91032
