33
Pyrazole_H6_Int1_Sub13.log	Energy: -582658.1027970
C          0.04899       -1.18395        1.54478
C          0.63512       -1.42934        0.27811
N          1.04304       -0.69984        2.31124
C          2.01771       -1.04190        0.45383
H          0.22948       -2.07672       -0.49812
H          0.95882       -0.33151        3.25000
N          2.21939       -0.59330        1.67007
C          3.10173       -1.04768       -0.57810
O         -1.88864       -0.80575       -0.91584
C         -2.83232       -1.31139       -0.17290
O         -2.86519       -1.27803        1.04690
C         -3.92714       -1.95598       -0.99159
H         -4.49273       -1.16953       -1.51344
H         -3.49864       -2.61293       -1.76104
H         -4.60129       -2.51789       -0.33453
H         -0.95810       -1.41051        1.90587
Pd        -0.52982        0.36371       -0.09215
O         -1.12791        2.34087       -0.62248
C         -0.08379        2.76544       -0.05928
O          0.68335        1.90666        0.49174
C          0.27902        4.21057       -0.05937
H          0.82715        4.46522        0.85669
H          0.93979        4.40539       -0.91833
H         -0.62141        4.82795       -0.16512
H          4.02577       -0.78704       -0.03763
C          3.27022       -2.42686       -1.21124
H          4.10347       -2.42242       -1.93008
H          3.47764       -3.19720       -0.45357
H          2.36349       -2.72619       -1.76139
C          2.83609        0.03031       -1.63165
H          2.70430        1.01493       -1.16038
H          3.67134        0.08830       -2.34645
H          1.91904       -0.19412       -2.20096
