36
Pyrazole_H6_deriv1_Int1_Sub14.log	Energy: -607305.9149257
C          0.14022       -1.08386        1.44660
C          0.60183       -1.42051        0.14855
N          1.18694       -0.53250        2.08601
C          1.99077       -1.02092        0.16709
H          0.13567       -2.13414       -0.52943
C          1.17035        0.14463        3.35588
N          2.29599       -0.47887        1.32165
C          2.97942       -1.10731       -0.95330
O         -1.99222       -0.86895       -0.91224
C         -2.86740       -1.34520       -0.07252
O         -2.80672       -1.24741        1.14268
C         -4.01337       -2.04361       -0.76826
H         -4.63701       -1.28994       -1.27215
H         -3.63815       -2.72610       -1.54322
H         -4.61894       -2.58711       -0.03345
H         -0.82817       -1.28312        1.91237
Pd        -0.58781        0.34540       -0.24617
O         -1.25107        2.30738       -0.78489
C         -0.17281        2.75553       -0.31466
O          0.64627        1.91988        0.19758
C          0.17268        4.20408       -0.37863
H          0.78388        4.48861        0.48740
H          0.76653        4.38237       -1.28853
H         -0.73991        4.81010       -0.43367
H          3.94875       -0.81956       -0.51556
C          3.08609       -2.52721       -1.50448
H          3.85355       -2.57943       -2.29149
H          3.35521       -3.24749       -0.71750
H          2.13350       -2.85312       -1.95251
C          2.62546       -0.09994       -2.05000
H          2.54415        0.91606       -1.63738
H          3.39218       -0.10059       -2.84008
H          1.65858       -0.35087       -2.51635
H          1.11667        1.23323        3.20567
H          2.08770       -0.10044        3.90630
H          0.29499       -0.18846        3.92706
