42
Pyrazole_H6_deriv1_Int1_Sub28.log	Energy: -656606.3051791
C         -0.17890       -0.86823        1.65075
C          0.56257       -0.84119        0.44370
N          0.40590        0.04317        2.44940
C          1.58928        0.15042        0.68376
H          0.56263       -1.61532       -0.32130
H          0.07316        0.35873        3.35149
N          1.44653        0.67346        1.88016
C          2.65080        0.63189       -0.25682
O         -1.85857       -1.52401       -0.91855
C         -2.52211       -2.38324       -0.19791
O         -2.67332       -2.32328        1.01200
C         -3.11811       -3.49509       -1.03034
H         -3.93786       -3.08485       -1.63901
H         -2.37000       -3.90201       -1.72457
H         -3.50723       -4.28310       -0.37491
H         -0.99516       -1.52840        1.95816
Pd        -1.27351        0.17880       -0.11072
O         -2.68726        1.61869       -0.80054
C         -2.00542        2.50629       -0.22166
O         -0.96535        2.13206        0.41698
C         -2.36367        3.95051       -0.29981
H         -2.07023        4.46553        0.62386
H         -1.80811        4.40461       -1.13494
H         -3.43754        4.06516       -0.49151
H          3.04052        1.55315        0.20681
C          3.87065       -0.33719       -0.36062
C          3.48523       -1.69662       -0.94749
H          2.79667       -2.24554       -0.28790
H          4.38303       -2.32238       -1.07035
C          2.01346        1.01160       -1.59433
H          1.19320        1.72477       -1.42526
H          2.73967        1.48586       -2.26846
H          1.58769        0.13902       -2.11320
H          3.01393       -1.60216       -1.93775
C          4.94357        0.30420       -1.24538
H          5.20002        1.31550       -0.89101
H          5.86360       -0.30047       -1.22627
H          4.62489        0.38180       -2.29524
C          4.45657       -0.54625        1.03794
H          5.34913       -1.18940        0.98895
H          4.75181        0.41193        1.49374
H          3.73293       -1.02378        1.71520
