42
Pyrazole_H6_deriv1_Int1_Sub5.log	Energy: -656603.7998539
C         -0.12827        0.80717        1.59251
C         -0.94039        0.90486        0.42651
N         -0.75783       -0.04650        2.42807
C         -2.03559       -0.02172        0.71803
C         -0.90977        2.12498       -0.47323
H         -0.40160       -0.41250        3.30153
N         -1.87090       -0.56447        1.90545
C         -3.19144       -0.52357       -0.10798
O          1.87112        1.09467       -0.73753
C          2.71969        1.67758        0.06104
O          2.77206        1.51719        1.27023
C          3.66385        2.60079       -0.67388
H          4.36216        1.99524       -1.27092
H          3.11089        3.24260       -1.37374
H          4.22744        3.20692        0.04515
H          0.74247        1.39451        1.89575
Pd         0.80910       -0.42322       -0.05128
O          1.88502       -2.10419       -0.79219
C          1.01262       -2.85018       -0.27026
O          0.06309       -2.29086        0.37168
C          1.05224       -4.33170       -0.42223
H          0.59049       -4.81582        0.44758
H          0.47210       -4.60647       -1.31695
H          2.08576       -4.67201       -0.56156
H         -3.68283       -1.23770        0.57176
C         -4.23633        0.52702       -0.47646
H         -5.11566        0.03537       -0.91996
H         -4.57519        1.08530        0.40906
H         -3.86353        1.25091       -1.21494
C         -2.70909       -1.31818       -1.32325
H         -2.02057       -2.11547       -1.01052
H         -3.56515       -1.77561       -1.84308
H         -2.18012       -0.67989       -2.04571
H          0.10422        2.53296       -0.36317
C         -1.09423        1.85196       -1.96013
H         -0.94061        2.78082       -2.52988
H         -0.35973        1.11602       -2.31724
H         -2.10190        1.48450       -2.19869
C         -1.87986        3.18521        0.05300
H         -1.67388        3.42204        1.10774
H         -1.77638        4.11450       -0.52840
H         -2.92662        2.85892       -0.01915
