27
Pyrazole_H7_Int1_Sub17.log	Energy: -720084.3570900
C          0.11209       -1.63258        0.39324
C         -1.11399       -1.30729        0.98529
C         -0.18219       -1.61028       -1.01552
N         -1.97419       -1.11817       -0.03038
H         -1.40577       -1.19302        2.02563
H          0.48311       -1.86089       -1.84092
N         -1.44866       -1.29859       -1.24665
C         -3.34577       -0.67990        0.05953
O          2.64306       -0.45220       -0.61996
C          3.34485       -1.10954        0.26097
O          2.95005       -1.43856        1.36763
C          4.73659       -1.42798       -0.23284
H          5.32416       -0.49828       -0.26705
H          5.21731       -2.14005        0.44821
H          4.70294       -1.82947       -1.25494
H          1.00617       -1.99264        0.91264
Pd         0.93373        0.37351       -0.10604
O          1.32044        2.45363       -0.17496
C          0.10195        2.65457        0.08079
O         -0.63987        1.62883        0.24525
C         -0.46908        4.02681        0.15694
H         -0.77475        4.33469       -0.85505
H         -1.35452        4.03590        0.80467
H          0.29061        4.73253        0.51579
F         -3.65898       -0.55115        1.33923
F         -4.14132       -1.57323       -0.49440
F         -3.50823        0.47224       -0.54993
