30
Pyrazole_H6_deriv1_Int1_Sub26.log	Energy: -846329.9842492
C          0.09557       -1.00997        1.61758
C          0.82988       -1.09184        0.40956
N          0.83227       -0.23201        2.43705
C          2.00600       -0.29997        0.67681
H          0.72003       -1.84562       -0.36867
H          0.56756        0.10163        3.35526
N          1.96976        0.21009        1.88342
C          3.11281        0.02987       -0.26322
O         -1.70450       -1.28408       -0.91823
C         -2.51444       -2.00832       -0.19808
O         -2.63712       -1.93408        1.01432
C         -3.32128       -2.97367       -1.03434
H         -4.04689       -2.40559       -1.63550
H         -2.67038       -3.51406       -1.73538
H         -3.85413       -3.67501       -0.38165
H         -0.82137       -1.52553        1.91912
Pd        -0.79168        0.25924       -0.10084
O         -1.89272        1.95555       -0.77323
C         -1.04712        2.68737       -0.19317
O         -0.09877        2.10966        0.43841
C         -1.11280        4.17389       -0.26156
H         -0.70927        4.61551        0.65852
H         -0.49212        4.51358       -1.10525
H         -2.14540        4.50007       -0.43608
H          3.90642        0.52538        0.31115
Cl         3.83243       -1.50526       -0.89035
C          2.65877        0.89486       -1.42281
H          2.21338        1.82118       -1.02928
H          3.50769        1.14345       -2.07459
H          1.89693        0.37330       -2.02124
