49
Pyrazole_H6_deriv1_Int1_Sub3.log	Energy: -729804.0866844
C          0.08724        0.00363        1.86865
C         -0.54456       -0.59312        0.73990
N          0.79627       -0.97164        2.47071
C         -0.05264       -1.97279        0.78667
C         -1.83739       -0.04361        0.18172
H          1.44178       -0.86578        3.24250
N          0.74420       -2.13787        1.81950
C         -0.18979       -3.13149       -0.16598
O          0.09580        2.13787       -0.53517
C         -0.31135        3.02037        0.32826
O         -0.24741        2.91324        1.54312
C         -0.92225        4.23237       -0.33847
H         -0.18936        4.69443       -1.01508
H         -1.78006        3.92298       -0.95386
H         -1.24544        4.95310        0.42162
H         -0.07893        0.99967        2.29041
Pd         1.19601        0.57906       -0.03642
O          3.01423        1.03068       -1.06301
C          3.47363       -0.06997       -0.65672
O          2.72465       -0.78630        0.08782
C          4.82573       -0.55366       -1.05424
H          5.23593       -1.21725       -0.28264
H          4.72992       -1.12848       -1.98856
H          5.49353        0.29672       -1.24010
H          0.42414       -3.91255        0.30996
C         -1.59873       -3.70195       -0.31028
H         -1.56050       -4.64163       -0.88231
H         -2.04549       -3.92360        0.67039
H         -2.27502       -3.02231       -0.84795
C          0.45154       -2.81351       -1.51841
H          1.49130       -2.48493       -1.38077
H          0.44752       -3.70627       -2.16278
H         -0.08769       -2.01422       -2.04781
H         -1.83044        1.02645        0.43713
C         -3.04313       -0.64025        0.92381
H         -2.90188       -0.51794        2.01000
H         -3.09881       -1.72445        0.73635
C         -4.34130        0.02491        0.47928
H         -5.19812       -0.44027        0.99304
H         -4.32873        1.08428        0.79320
C         -4.52082       -0.04601       -1.03315
H         -5.44574        0.47219       -1.33392
H         -4.64530       -1.10225       -1.33488
C         -3.31763        0.54279       -1.76129
H         -3.25014        1.62385       -1.54214
H         -3.44545        0.45641       -2.85218
C         -2.01824       -0.12872       -1.33269
H         -2.03696       -1.18326       -1.65156
H         -1.15947        0.34708       -1.82896
