27
Pyrazole_H7_Int1_Sub22.log	Energy: -533348.3151657
C          0.07369       -1.78461        0.42810
C         -1.19050       -1.87100        1.03745
C         -0.24349       -1.82585       -0.97298
N         -2.09104       -1.92768        0.05203
H         -1.47638       -1.87184        2.08662
H          0.44689       -1.86981       -1.81448
N         -1.55712       -1.91180       -1.17048
C         -3.52656       -1.86314        0.18585
O          2.10910        0.07621       -0.64198
C          2.98709       -0.28017        0.25405
O          2.72664       -0.63895        1.38988
C          4.40377       -0.19801       -0.26768
H          4.67561        0.85964       -0.40215
H          5.08987       -0.66539        0.44849
H          4.48198       -0.68141       -1.25135
H          1.04093       -1.88429        0.92577
Pd         0.23400        0.35306       -0.11902
O         -0.03020        2.46370       -0.17072
C         -1.24986        2.28313        0.08707
O         -1.65348        1.08270        0.24241
C         -2.20639        3.42293        0.17639
H         -2.59525        3.63467       -0.83171
H         -3.05067        3.16428        0.82768
H         -1.69040        4.32056        0.53966
H         -3.86141       -0.83137        0.01141
H         -3.81203       -2.17911        1.19649
H         -3.97903       -2.52931       -0.55852
