37
Pyrazole_H6_deriv1_Int1_Sub16.log	Energy: -654437.8669797
C          0.14770       -0.94642        1.48659
C          0.47573       -1.48626        0.21478
N          1.28801       -0.39775        1.92974
C          1.88159       -1.18117        0.05754
H         -0.08319       -2.26264       -0.30638
O          1.42309        0.26425        3.08500
N          2.32599       -0.50843        1.09461
C          2.75637       -1.49885       -1.11487
O         -2.17193       -0.95395       -0.69182
C         -2.99483       -1.18003        0.29416
O         -2.81381       -0.84091        1.45228
C         -4.24041       -1.91184       -0.14886
H         -4.87030       -1.22155       -0.73001
H         -3.98408       -2.75261       -0.80784
H         -4.79710       -2.26176        0.72847
H         -0.77323       -0.99649        2.07155
Pd        -0.65099        0.26119       -0.38341
O         -1.27520        2.13296       -1.19972
C         -0.13325        2.58932       -0.93119
O          0.69896        1.80932       -0.35558
C          0.26591        3.97790       -1.29679
H          0.97413        4.37725       -0.55947
H          0.77152        3.95105       -2.27454
H         -0.62023        4.61891       -1.37990
H          3.77270       -1.19611       -0.81620
C          2.75658       -2.99476       -1.42278
H          3.44404       -3.21708       -2.25280
H          3.07160       -3.58696       -0.55078
H          1.75441       -3.33944       -1.72460
C          2.34139       -0.67094       -2.33319
H          2.34000        0.40286       -2.09685
H          3.03077       -0.84702       -3.17318
H          1.32642       -0.94313       -2.66621
C          1.42787        1.67501        2.88307
H          2.25309        1.96449        2.21660
H          0.46931        2.00755        2.45542
H          1.57089        2.10606        3.88093
