33
Pyrazole_H7_Int1_Sub5.log	Energy: -582656.9856820
C          0.83852        1.02545        1.10428
C          0.35336        2.00901        0.19824
C         -0.02109        1.17405        2.25317
N         -0.69110        2.56053        0.81906
C          0.81642        2.43137       -1.16075
H          0.03070        0.63498        3.19852
N         -0.94910        2.08033        2.05077
H         -1.33737        3.22786        0.41295
O          1.22461       -1.78644        0.69672
C          2.25753       -1.68136       -0.08435
O          2.40122       -0.81761       -0.93788
C          3.28886       -2.75920        0.15525
H          2.90358       -3.71236       -0.23737
H          4.22105       -2.50433       -0.36278
H          3.46635       -2.89743        1.23054
H          1.84285        0.60907        1.08304
Pd        -0.32282       -0.62739        0.31545
O         -1.77729       -1.94570       -0.52587
C         -2.57003       -0.97077       -0.58774
O         -2.14945        0.16442       -0.17928
C         -3.96532       -1.11881       -1.09110
H         -4.64761       -1.17085       -0.22877
H         -4.24559       -0.24114       -1.68844
H         -4.06284       -2.03961       -1.67850
H          0.40538        3.44503       -1.31988
C          2.34096        2.49994       -1.22052
H          2.65905        2.89254       -2.19758
H          2.75012        3.15714       -0.43849
H          2.76480        1.49106       -1.10591
C          0.25981        1.51083       -2.25285
H         -0.83399        1.42107       -2.18514
H          0.52116        1.91019       -3.24455
H          0.70665        0.51005       -2.14856
