33
Pyrazole_H6_Int1_Sub5.log	Energy: -582653.8142705
C         -0.85224        0.69724       -1.36716
C         -1.10728        1.28010       -0.09477
N         -0.13180        1.62139       -2.05828
C         -0.43806        2.55193       -0.19022
C         -2.20180        0.94954        0.88911
H          0.29081        1.49532       -2.96930
N          0.13792        2.72000       -1.35649
H         -0.37768        3.33182        0.56733
O         -0.79891       -1.69467        0.48407
C         -1.21786       -2.46660       -0.47861
O         -1.02803       -2.27197       -1.66897
C         -1.98850       -3.66168        0.03269
H         -1.30084       -4.32866        0.57361
H         -2.76073       -3.34434        0.74754
H         -2.44063       -4.20071       -0.80807
H         -1.25492       -0.20114       -1.84415
Pd         0.52728       -0.28419        0.08222
O          2.36117       -1.15170        0.71159
C          2.93722       -0.07428        0.39460
O          2.21690        0.85955       -0.08809
C          4.39909        0.12262        0.60244
H          4.77772        0.90608       -0.06548
H          4.56623        0.43779        1.64401
H          4.93242       -0.82335        0.44374
H         -2.43690       -0.11697        0.76855
C         -1.75439        1.16787        2.33038
H         -2.56618        0.91183        3.02746
H         -0.88608        0.53822        2.57510
H         -1.47891        2.21859        2.51594
C         -3.45072        1.76645        0.55278
H         -3.78057        1.58712       -0.48152
H         -4.27886        1.49598        1.22594
H         -3.26414        2.84656        0.66437
