26
Pyridine_H10_Int1_Sub10.log	Energy: -810857.2176975
C         -0.30030       -1.58236        0.23012
C         -0.17672       -1.22682        1.59336
C         -1.62329       -1.57273       -0.31074
C         -1.34218       -0.86967        2.31295
H          0.77972       -1.35907        2.10397
N         -2.68847       -1.24873        0.35759
Cl        -1.80735       -2.03077       -1.96380
C         -2.55134       -0.89193        1.65061
H         -1.28492       -0.59668        3.36736
H         -3.47698       -0.62565        2.17021
O          2.25814       -0.01953        0.61109
C          2.88270       -0.72400       -0.29705
O          2.34876       -1.25021       -1.25625
C          4.36738       -0.81186       -0.03506
H          4.56448       -1.03923        1.02147
H          4.81225       -1.57359       -0.68607
H          4.82447        0.16574       -0.25005
H          0.52549       -2.00243       -0.35200
Pd         0.39522        0.51538        0.26984
O          0.55918        2.51985       -0.36503
C         -0.70232        2.57456       -0.42212
O         -1.34626        1.52794       -0.08292
C         -1.41530        3.78984       -0.89764
H         -2.42005        3.83729       -0.45956
H         -0.83406        4.68855       -0.65615
H         -1.51652        3.72725       -1.99228
