38
Pyridine_H10_deriv1_Int1_Sub20.log	Energy: -909461.9792650
C         -0.34666       -1.56007        0.05269
C         -0.00931       -1.20922       -1.27411
C          0.71618       -1.46868        1.00358
C          1.30139       -0.76477       -1.56281
H         -0.72145       -1.39841       -2.08038
N          1.91121       -1.05848        0.72709
Cl         0.37212       -1.94409        2.62898
C          2.22834       -0.68153       -0.53738
H          1.56339       -0.49458       -2.58402
C          3.64940       -0.17276       -0.71185
O         -2.71197       -0.16937       -1.17450
C         -3.56463       -0.90240       -0.50647
O         -3.35937       -1.37640        0.59575
C         -4.86297       -1.09705       -1.25354
H         -4.67355       -1.35473       -2.30452
H         -5.45712       -1.87722       -0.76328
H         -5.42365       -0.15026       -1.24481
H         -1.28814       -2.04487        0.32505
Pd        -1.10714        0.48597       -0.24337
O         -1.56929        2.49803        0.21654
C         -0.40746        2.62454        0.69549
O          0.36086        1.60858        0.64119
C          0.04632        3.89090        1.33119
H          1.14000        3.96793        1.29156
H         -0.42978        4.75078        0.84326
H         -0.26424        3.88031        2.38750
C          4.61528       -1.26515       -0.23396
H          5.65239       -0.89904       -0.28165
H          4.39037       -1.55173        0.80261
H          4.54037       -2.16461       -0.86491
C          3.95807        0.18853       -2.16239
H          3.30101        0.99005       -2.53393
H          4.99411        0.55029       -2.24038
H          3.86094       -0.68024       -2.83201
C          3.80246        1.07403        0.17255
H          4.83348        1.45545        0.10991
H          3.11079        1.86777       -0.14671
H          3.57499        0.83225        1.21997
