30
Pyridine_H10_deriv1_Int1_Sub16.log	Energy: -882674.6209348
C          0.41763       -0.91518        1.25950
C          0.18302       -1.66496        0.08015
C          1.74568       -0.48724        1.50036
C          1.27944       -1.93158       -0.78567
H         -0.77514       -2.16952       -0.05066
N          2.74550       -0.75705        0.70729
Cl         2.05580        0.44207        2.92556
C          2.53302       -1.45289       -0.41204
O          1.18069       -2.61408       -1.92872
H          3.39341       -1.66094       -1.05520
O         -2.31493       -0.29116       -0.17429
C         -2.91223       -0.23515        0.98859
O         -2.36574        0.03960        2.04062
C         -4.38864       -0.53910        0.89044
H         -4.56802       -1.40876        0.24377
H         -4.79799       -0.70897        1.89325
H         -4.89725        0.32160        0.43046
H         -0.36925       -0.77876        2.00754
Pd        -0.48364        0.41543       -0.34403
O         -0.77250        2.29099       -1.25743
C          0.48339        2.43288       -1.29565
O          1.18971        1.47213       -0.84584
C          1.12053        3.67544       -1.80599
H          2.11055        3.45047       -2.22221
H          0.47494        4.15383       -2.55291
H          1.25114        4.37051       -0.96205
C         -0.09544       -3.00415       -2.37550
H         -0.54692       -3.75993       -1.71063
H         -0.77579       -2.13823       -2.45192
H          0.04437       -3.44545       -3.36938
