40
Pyridazine_H7_deriv1_Int1_Sub20.log	Energy: -655824.2385592
C         -0.08816       -1.45167        0.09742
C         -0.25305       -1.21749       -1.28708
C          1.06730       -0.90881        0.68788
N          0.67538       -0.54427       -2.02260
H         -1.03965       -1.70708       -1.86619
C          1.92879       -0.17710       -0.11157
H          1.27083       -1.05456        1.75035
N          1.70897       -0.03339       -1.44903
C          3.16562        0.47860        0.40978
O         -3.02185       -0.93842       -0.46974
C         -3.38771       -1.65734        0.55814
O         -2.75031       -1.75554        1.59258
C         -4.70496       -2.35933        0.33512
H         -5.51418       -1.61419        0.36202
H         -4.73040       -2.83322       -0.65565
H         -4.86622       -3.10187        1.12545
H         -0.76237       -2.09823        0.66518
Pd        -1.50427        0.28503       -0.21095
O         -2.40658        2.14030        0.23335
C         -1.25779        2.66606        0.24012
O         -0.26556        1.89763        0.01552
C         -1.06165        4.12309        0.46433
H         -0.07426        4.30976        0.90481
H         -1.10911        4.63483       -0.50943
H         -1.86143        4.51909        1.10248
C          4.45879       -0.37176        0.33175
H          2.99980        0.76881        1.45948
H          3.31436        1.40099       -0.17176
C          4.31478       -1.64283        1.17000
H          5.25324       -2.21865        1.15906
H          4.08001       -1.40864        2.22127
H          3.52221       -2.30116        0.78118
C          4.77492       -0.74427       -1.11723
H          4.86716        0.15174       -1.74938
H          5.72430       -1.30047       -1.16779
H          3.98977       -1.37428       -1.56027
C          5.59632        0.48085        0.89705
H          6.54894       -0.07081        0.86843
H          5.72548        1.40627        0.31414
H          5.40266        0.76431        1.94399
