35
Pyridine_H10_deriv1_Int1_Sub21.log	Energy: -884812.4070224
C         -0.17256       -1.55719        0.00095
C          0.04690       -1.22585       -1.35650
C          0.96461       -1.44831        0.85990
C          1.32699       -0.78352       -1.75799
H         -0.73202       -1.42867       -2.09484
N          2.13323       -1.03896        0.48068
Cl         0.75596       -1.89897        2.51428
C          2.33333       -0.68514       -0.81237
H          1.51908       -0.52320       -2.79982
C          3.70946       -0.17129       -1.14474
O         -2.64207       -0.19025       -1.03650
C         -3.43084       -0.91693       -0.28788
O         -3.12866       -1.37637        0.79811
C         -4.78836       -1.12461       -0.91679
H         -4.68956       -1.39911       -1.97594
H         -5.33620       -1.89740       -0.36483
H         -5.34831       -0.17827       -0.87517
H         -1.08541       -2.04098        0.35936
Pd        -0.96583        0.48186       -0.25501
O         -1.39220        2.50081        0.21036
C         -0.19436        2.63571        0.58736
O          0.56850        1.61925        0.48474
C          0.30939        3.91253        1.16138
H          1.39723        3.98381        1.03844
H         -0.19943        4.76441        0.69271
H          0.07798        3.92510        2.23777
H          3.74144       -0.00363       -2.23424
C          3.93893        1.16561       -0.43778
H          4.93612        1.56321       -0.68049
H          3.18104        1.90645       -0.73077
H          3.86872        1.03109        0.65199
C          4.77688       -1.19652       -0.76954
H          4.63826       -2.14145       -1.31639
H          5.78074       -0.81023       -1.00172
H          4.72781       -1.41592        0.30730
