31
Pyridine_H10_deriv1_Int1_Sub23.log	Energy: -870231.4106178
C         -0.08096       -1.48595       -0.16835
C          0.16804       -1.20395       -1.54383
C          1.07942       -1.48654        0.66609
C          1.44109       -0.86354       -1.97152
H         -0.65197       -1.30103       -2.25883
N          2.27415       -1.16020        0.28358
Cl         0.87656       -1.95438        2.31400
C          2.47276       -0.81039       -1.00904
H          1.64023       -0.62078       -3.01629
N          3.72201       -0.42782       -1.32779
O         -2.56099       -0.01083       -0.81595
C         -3.31101       -0.85591       -0.16518
O         -2.95296       -1.54674        0.77263
C         -4.72497       -0.89372       -0.70245
H         -4.72112       -0.96462       -1.79893
H         -5.26679       -1.73879       -0.26149
H         -5.23241        0.04642       -0.43898
H         -1.00168       -1.96157        0.18791
Pd        -0.78813        0.55012       -0.15959
O         -1.00749        2.64455        0.22292
C          0.21864        2.67965        0.50716
O          0.88351        1.59432        0.41559
C          0.87996        3.93170        0.97386
H          1.94132        3.92933        0.69512
H          0.36557        4.80900        0.56237
H          0.81264        3.97366        2.07203
H          3.88446       -0.11232       -2.27295
C          4.77838       -0.29404       -0.35628
H          5.70542       -0.02543       -0.87825
H          4.93412       -1.23662        0.18776
H          4.54487        0.48352        0.38889
