44
Pyridazine_H7_deriv1_Int1_Sub11.log	Energy: -704379.7862312
C         -0.22934       -0.00705       -1.60925
C          1.00228       -0.31125       -2.23006
C         -0.97023       -1.07386       -1.05021
N          1.43886       -1.58356       -2.37892
H          1.58089        0.45257       -2.75607
C         -0.40414       -2.34469       -1.19449
C         -2.23422       -0.82746       -0.28047
N          0.74658       -2.55416       -1.87888
C         -1.03022       -3.57960       -0.63258
O          1.39299        2.22356       -0.70441
C          0.39989        2.96215       -0.29346
O         -0.58259        2.52651        0.28759
C          0.58726        4.42724       -0.59733
H          1.33626        4.83849        0.09621
H          0.97086        4.57005       -1.61657
H         -0.36199        4.95846       -0.46001
H         -0.66252        0.99061       -1.67825
Pd         1.34382        0.35720       -0.07755
O          2.35518        0.38471        1.77731
C          2.19279       -0.86550        1.85160
O          1.57860       -1.43051        0.88715
C          2.71604       -1.66298        2.99260
H          2.04758       -2.50863        3.19914
H          3.70091       -2.06783        2.71271
H          2.83562       -1.02743        3.87845
H         -0.41304       -4.44267       -0.90920
H         -2.05165       -3.73115       -1.01478
H         -1.09297       -3.52414        0.46484
H         -2.84370       -1.74651       -0.33117
C         -3.08049        0.33083       -0.81480
H         -3.32591        0.16233       -1.87654
H         -2.49617        1.26357       -0.75000
C         -4.34975        0.50250        0.01232
H         -4.94197        1.34291       -0.38342
H         -4.98194       -0.39870       -0.08957
C         -4.02067        0.73119        1.48365
H         -4.94590        0.82879        2.07407
H         -3.47551        1.68599        1.58401
C         -3.15260       -0.39347        2.03697
H         -3.73059       -1.33594        2.04654
H         -2.87712       -0.18711        3.08378
C         -1.89116       -0.58000        1.20378
H         -1.27398        0.33393        1.25321
H         -1.27683       -1.40704        1.59371
