31
Pyridine_H10_deriv1_Int1_Sub15.log	Energy: -870222.6744624
C          0.52535       -1.20100        1.13564
C         -0.31605       -1.53378        0.04391
C          1.90823       -1.25188        0.93565
C          0.28289       -1.92566       -1.19585
H         -1.36498       -1.74817        0.24858
N          2.45481       -1.62313       -0.20249
Cl         2.96401       -0.80315        2.23573
C          1.69461       -1.94048       -1.23516
N         -0.46629       -2.27475       -2.26300
H          2.20632       -2.24767       -2.15547
O         -2.31420        0.57259        0.14746
C         -2.80778        0.17072        1.28657
O         -2.17321       -0.36947        2.17498
C         -4.28721        0.45745        1.40489
H         -4.81360        0.18436        0.48010
H         -4.70248       -0.08378        2.26327
H         -4.42840        1.53870        1.55295
H          0.06882       -0.98763        2.10327
Pd        -0.37055        0.64044       -0.16262
O         -0.08457        2.69017       -0.62115
C          1.13216        2.43692       -0.84192
O          1.50802        1.22504       -0.72277
C          2.10930        3.50373       -1.19158
H          2.91897        3.09037       -1.80611
H          1.60234        4.32936       -1.70630
H          2.54902        3.89201       -0.25981
H          0.02279       -2.49148       -3.12007
C         -1.89879       -2.14913       -2.29992
H         -2.24708       -2.28942       -3.33061
H         -2.22096       -1.15179       -1.95177
H         -2.39812       -2.90433       -1.66821
