28
Pyridazine_H7_Int1_Sub14.log	Energy: -557224.9945237
C         -0.25493       -1.77076       -0.27593
C          0.35261       -1.45626       -1.51193
C          0.59976       -2.11371        0.80090
N          1.68872       -1.55797       -1.71779
H         -0.24636       -1.26299       -2.40621
C          1.95435       -2.12218        0.49653
C          0.04295       -2.44813        2.14105
N          2.45815       -1.88887       -0.72962
H          2.69969       -2.35956        1.26102
O         -1.98302        0.43397       -0.84179
C         -2.79746        0.19733        0.15130
O         -2.43228       -0.17949        1.25385
C         -4.24336        0.44622       -0.19464
H         -4.41202        1.53229       -0.24935
H         -4.48701        0.02734       -1.18047
H         -4.88918        0.01791        0.58096
H         -1.33428       -1.89693       -0.18402
Pd        -0.08798        0.43951       -0.30327
O          0.30216        2.45888        0.15510
C          1.50307        2.14453        0.39229
O          1.81695        0.91666        0.25771
C          2.52131        3.15682        0.77785
H          3.30734        2.69117        1.38542
H          2.98296        3.55316       -0.13982
H          2.04554        3.98776        1.31343
H         -0.42512       -3.44618        2.12032
H         -0.74498       -1.72538        2.40256
H          0.82209       -2.45147        2.91477
