26
Pyridine_H10_Int1_Sub18.log	Energy: -810854.2573651
C          0.12717       -1.35387        1.24489
C          0.69014       -1.60068       -0.02902
C          0.97297       -0.81614        2.25351
C          2.05941       -1.28806       -0.20800
H          0.14402       -2.15453       -0.79543
N          2.24044       -0.53517        2.05826
H          0.56238       -0.62983        3.25172
C          2.77932       -0.75883        0.84816
Cl         2.80600       -1.56738       -1.73247
H          3.83759       -0.51344        0.71703
O         -1.94316       -0.71796       -0.81452
C         -2.93665       -0.96320        0.00010
O         -2.91118       -0.75385        1.19967
C         -4.14003       -1.53349       -0.71054
H         -3.84096       -2.33144       -1.40389
H         -4.86024       -1.90871        0.02598
H         -4.60899       -0.73862       -1.30971
H         -0.88039       -1.68739        1.50586
Pd        -0.44345        0.33550       -0.09934
O         -0.87581        2.30838       -0.69682
C          0.22804        2.67243       -0.19970
O          0.95192        1.76834        0.33245
C          0.65753        4.09610       -0.19918
H          1.75198        4.16301       -0.16332
H          0.25776        4.61139       -1.08156
H          0.24873        4.58343        0.69956
