35
Pyridine_H10_Int1_Sub21.log	Energy: -596487.8642898
C          0.04925       -1.17671        1.49450
C          0.83703       -1.39666        0.34112
C          0.62711       -0.43151        2.55909
C          2.14860       -0.85294        0.28851
H          0.48629       -2.08682       -0.43012
N          1.84344        0.05720        2.51322
H          0.04399       -0.25879        3.47057
C          2.57483       -0.14611        1.40161
C          3.01117       -0.98843       -0.94035
H          3.58244        0.28600        1.40773
O         -1.78678       -1.06003       -0.81977
C         -2.86063       -1.33116       -0.12341
O         -3.06031       -0.93809        1.01119
C         -3.84366       -2.18821       -0.88435
H         -3.33422       -3.04493       -1.34684
H         -4.63677       -2.52920       -0.20862
H         -4.28396       -1.59198       -1.69747
H         -0.90840       -1.67775        1.64932
Pd        -0.58332        0.29816       -0.05823
O         -1.22433        2.10728       -0.93818
C         -0.26996        2.69715       -0.35718
O          0.50727        1.98557        0.35960
C         -0.07074        4.16750       -0.46981
H          0.99408        4.41441       -0.37313
H         -0.47812        4.53452       -1.41998
H         -0.61359        4.65660        0.35383
H          4.01569       -0.62848       -0.65915
C          3.14409       -2.43539       -1.40899
H          3.83885       -2.50127       -2.25984
H          3.52387       -3.08607       -0.60715
H          2.17763       -2.84132       -1.74754
C          2.48519       -0.07963       -2.05492
H          2.40107        0.96072       -1.70781
H          3.15474       -0.10456       -2.92849
H          1.48452       -0.40193       -2.38680
