41
Pyridine_H10_deriv2_Int1_Sub6.log	Energy: -645785.0632967
C         -0.27239       -1.40331        1.14509
C          0.73877       -1.43874        0.14480
C         -0.01663       -0.77387        2.39120
C          1.96452       -0.75493        0.43384
C          0.50662       -2.36112       -1.01893
N          1.13274       -0.21072        2.67054
H         -0.80234       -0.75857        3.15449
C          2.07490       -0.20783        1.70991
C          3.09172       -0.56774       -0.58841
H          3.00295        0.28725        1.99916
O         -2.19916       -0.86196       -0.89205
C         -3.28334       -0.99289       -0.17042
O         -3.39307       -0.57767        0.96849
C         -4.39232       -1.71044       -0.90044
H         -4.01561       -2.62754       -1.37455
H         -5.20500       -1.94323       -0.20235
H         -4.77213       -1.06063       -1.70299
H         -1.15483       -2.03767        1.04818
Pd        -0.85601        0.32685       -0.07527
O         -1.32716        2.22669       -0.87824
C         -0.34736        2.71029       -0.24644
O          0.35927        1.90463        0.44338
C         -0.03934        4.16658       -0.27149
H          1.02691        4.33434       -0.07493
H         -0.33764        4.60075       -1.23408
H         -0.62090        4.65892        0.52326
C          2.55140        0.24205       -1.77993
H          3.34878        0.39771       -2.52342
H          1.71103       -0.24790       -2.28956
H          2.19889        1.22533       -1.43622
C          4.25877        0.23551       -0.00184
H          4.73579       -0.28116        0.84476
H          5.02577        0.37118       -0.77876
H          3.94396        1.23532        0.33157
C          3.66746       -1.91599       -1.04976
H          4.52766       -1.74246       -1.71489
H          4.02246       -2.50239       -0.18818
H          2.94707       -2.52901       -1.60310
H          0.97187       -3.33610       -0.80155
H          0.92772       -1.99270       -1.95982
H         -0.57060       -2.51047       -1.16420
