29
Pyridine_H10_deriv1_Int1_Sub22.log	Energy: -835512.5491530
C          0.18548       -1.55750       -0.10624
C          0.29632       -1.20012       -1.46988
C          1.39590       -1.50181        0.65185
C          1.55009       -0.78755       -1.97265
H         -0.54907       -1.36275       -2.14206
N          2.54128       -1.12033        0.18226
Cl         1.31568       -1.98429        2.30823
C          2.63844       -0.74293       -1.11682
H          1.65710       -0.51009       -3.02204
C          3.98740       -0.27987       -1.55598
O         -2.32602       -0.10731       -0.88048
C         -3.06349       -0.82745       -0.07545
O         -2.67643       -1.31783        0.96928
C         -4.47866       -0.98446       -0.57973
H         -4.48593       -1.23858       -1.64851
H         -4.99565       -1.75375        0.00585
H         -5.00451       -0.02430       -0.46836
H         -0.70647       -2.02415        0.32092
Pd        -0.56703        0.50649       -0.24646
O         -0.89936        2.51904        0.30612
C          0.33247        2.61983        0.56725
O          1.05899        1.59196        0.36509
C          0.91693        3.86998        1.12316
H          1.97830        3.94604        0.85594
H          0.35485        4.74214        0.76646
H          0.83721        3.83286        2.22072
H          4.23883        0.65349       -1.02823
H          4.03067       -0.09881       -2.63756
H          4.75006       -1.02094       -1.27499
