31
Pyridazine_H7_deriv1_Int1_Sub14.log	Energy: -581879.6568395
C          0.14312       -1.69881       -0.28306
C          0.34254       -1.25186       -1.60811
C          1.25369       -1.68195        0.58840
N          1.56503       -0.90694       -2.07507
H         -0.45168       -1.31013       -2.35687
C          2.46028       -1.24563        0.03428
C          1.11478       -2.09526        2.01465
N          2.57956       -0.91348       -1.27236
C          3.70712       -1.12652        0.84462
O         -2.29935       -0.17342       -0.66758
C         -2.90289       -0.71833        0.35467
O         -2.34636       -1.01158        1.40041
C         -4.37480       -0.94469        0.11534
H         -4.89154        0.02654        0.13900
H         -4.54569       -1.38163       -0.87798
H         -4.78226       -1.59239        0.90053
H         -0.79273       -2.15769        0.03925
Pd        -0.46689        0.44385       -0.30478
O         -0.69650        2.46901        0.24322
C          0.55997        2.55758        0.33709
O          1.23694        1.50539        0.09230
C          1.23410        3.83746        0.68288
H          2.19993        3.64038        1.16461
H          1.41895        4.39589       -0.24788
H          0.58629        4.44484        1.32726
H          4.54704       -0.89371        0.17906
H          3.92555       -2.04973        1.40267
H          3.60561       -0.31185        1.58018
H          1.52386       -1.32125        2.68193
H          1.67726       -3.02182        2.21550
H          0.05885       -2.24903        2.27309
