28
Pyridazine_H7_Int1_Sub22.log	Energy: -557224.3629931
C          0.12898       -1.78090        0.39111
C          0.21340       -1.66518       -1.01548
C          1.34172       -1.69153        1.09887
N          1.40771       -1.53439       -1.65926
H         -0.64543       -1.85680       -1.66310
C          2.50132       -1.47010        0.37760
H          1.36086       -1.78888        2.18618
N          2.49825       -1.42577       -0.98447
C          3.83362       -1.26473        1.01290
O         -2.24288       -0.18339       -0.60656
C         -2.97266       -0.55171        0.41310
O         -2.53551       -0.76797        1.53017
C         -4.43554       -0.67605        0.06419
H         -4.85390        0.33152       -0.07915
H         -4.56523       -1.22089       -0.88089
H         -4.96807       -1.17972        0.87950
H         -0.80534       -2.02853        0.90135
Pd        -0.38423        0.33272       -0.22876
O         -0.46121        2.43307       -0.04223
C          0.79544        2.44158        0.08585
O          1.39118        1.31468        0.05301
C          1.56093        3.70808        0.23395
H          2.48402        3.53047        0.79983
H          1.83429        4.06919       -0.76967
H          0.94007        4.47137        0.71927
H          4.61201       -1.77958        0.43358
H          3.85036       -1.61069        2.05478
H          4.07330       -0.18933        0.99972
