54
Pyridine_H10_deriv2_Int1_Sub3.log	Energy: -768281.3269070
C          0.29540        0.26727        1.47713
C         -0.97823        0.60779        0.91293
C          0.50223       -0.97414        2.11113
C         -2.00085       -0.33885        1.05040
C         -1.04963        1.91152        0.14857
N         -0.48268       -1.87756        2.23338
H          1.46729       -1.17443        2.58500
C         -1.64964       -1.54540        1.72674
C         -3.45369       -0.30329        0.53119
H         -2.42493       -2.30823        1.84412
O          2.73402        0.37109       -0.10677
C          3.54607        0.44161        0.91293
O          3.38291       -0.11481        1.98270
C          4.74746        1.31313        0.62313
H          4.42738        2.29118        0.23684
H          5.34303        1.43730        1.53515
H          5.35896        0.83996       -0.15924
H          1.05194        1.03789        1.61070
Pd         1.20606       -0.86439       -0.15845
O          1.56912       -1.93172       -1.97077
C          0.46212       -2.51161       -1.80977
O         -0.22278       -2.19554       -0.78098
C         -0.03214       -3.55038       -2.75583
H         -1.12347       -3.48191       -2.85498
H          0.45922       -3.44448       -3.73056
H          0.20850       -4.54244       -2.34359
C         -3.96850        1.04367        0.01320
H         -5.02427        0.92037       -0.27221
H         -3.93269        1.82607        0.78538
H         -3.43757        1.39524       -0.87955
C         -3.56320       -1.32419       -0.61468
H         -3.27553       -2.33464       -0.29118
H         -4.59775       -1.36254       -0.99125
H         -2.89852       -1.05136       -1.44772
C         -4.41452       -0.70067        1.66915
H         -5.45292       -0.64451        1.30875
H         -4.25849       -1.72304        2.03754
H         -4.31531       -0.01423        2.52407
H         -2.04839        2.34031        0.29070
C         -0.86421        1.66028       -1.36000
H         -1.55067        0.87170       -1.70501
H          0.15601        1.26568       -1.52032
C         -1.05583        2.93949       -2.16493
H         -0.88991        2.73665       -3.23512
H         -2.10575        3.27333       -2.07109
C         -0.12712        4.04745       -1.68150
H         -0.32157        4.98056       -2.23420
H          0.91673        3.76322       -1.90472
C         -0.26751        4.27635       -0.18064
H         -1.27497        4.67414        0.03922
H          0.44798        5.04230        0.15844
C         -0.05188        2.98344        0.59882
H          0.97853        2.63418        0.41670
H         -0.14712        3.16364        1.68216
