29
Pyridine_H10_Int1_Sub6.log	Energy: -547187.8643680
C         -0.28931       -1.70338        0.56522
C          0.23372       -1.96995       -0.72894
C          0.60585       -1.67037        1.67192
C          1.63235       -2.14722       -0.81204
C         -0.65994       -2.23427       -1.90013
N          1.90249       -1.86310        1.56844
H          0.19802       -1.47384        2.66978
C          2.39702       -2.09679        0.34009
H          2.10261       -2.34475       -1.77763
H          3.47884       -2.25769        0.28251
O         -1.97039        0.30357       -0.60118
C         -2.77295        0.44503        0.42239
O         -2.40259        0.43236        1.58226
C         -4.21493        0.63063        0.01724
H         -4.51021       -0.12487       -0.72423
H         -4.85867        0.57371        0.90286
H         -4.33000        1.61624       -0.45805
H         -1.36265       -1.72894        0.75858
Pd        -0.05391        0.36444       -0.14336
O          0.47687        2.38171       -0.48296
C          1.66556        2.09295       -0.16989
O          1.91215        0.87818        0.12436
C          2.73468        3.12655       -0.10719
H          3.71369        2.67354       -0.30783
H          2.52096        3.93676       -0.81541
H          2.75118        3.54956        0.90921
H         -0.16269       -1.97521       -2.84519
H         -1.59452       -1.66393       -1.81786
H         -0.90492       -3.30882       -1.93299
