41
Pyridine_H10_deriv2_Int1_Sub1.log	Energy: -832520.6305221
C         -0.16929       -1.33956        0.65846
C          1.16768       -1.12018        0.20869
C         -0.64288       -0.65874        1.79905
C          1.95014       -0.16410        0.85333
C          1.54297       -1.95202       -1.00559
N          0.16968        0.14504        2.51869
H         -1.63587       -0.86365        2.21118
C          1.37118        0.36804        2.05180
C          3.33496        0.36552        0.44315
H          1.98568        1.02995        2.66466
O         -2.75561       -0.88255       -0.46259
C         -3.74238       -0.91209        0.39704
O         -3.73721       -0.33853        1.47013
C         -4.90859       -1.73608       -0.09293
H         -4.56335       -2.70016       -0.49102
H         -5.62208       -1.88767        0.72556
H         -5.40320       -1.20043       -0.91701
H         -0.75789       -2.15074        0.23010
Pd        -1.30402        0.39052       -0.09999
O         -1.81574        2.11251       -1.22748
C         -0.72796        2.64025       -0.87065
O          0.03890        1.94884       -0.11940
C         -0.35510        4.02376       -1.27276
H          0.73545        4.11598       -1.35505
H         -0.84556        4.28999       -2.21709
H         -0.70143        4.71862       -0.49196
C          3.43008        0.58991       -1.07386
H          4.35305        1.14630       -1.29438
H          3.47257       -0.33676       -1.65266
H          2.57794        1.18841       -1.42869
C          3.59887        1.73950        1.08579
H          3.74376        1.68867        2.17414
H          4.52792        2.15002        0.66461
H          2.78288        2.44582        0.87042
C          4.42505       -0.60212        0.93095
H          5.41802       -0.20318        0.67071
H          4.38448       -0.71528        2.02538
H          4.32597       -1.59640        0.47994
F          1.33980       -1.28040       -2.14269
F          0.79429       -3.05521       -1.07058
F          2.81344       -2.36140       -0.99346
