28
Pyridazine_H7_deriv1_Int1_Sub18.log	Energy: -845542.5932679
C          0.09066       -1.66668       -0.07884
C         -0.16327       -1.37686       -1.43951
C          1.39229       -1.40237        0.38991
N          0.81107       -0.92465       -2.27923
H         -1.09697       -1.66795       -1.92629
C          2.28635       -0.85811       -0.50835
H          1.68547       -1.60897        1.41992
N          1.98311       -0.66231       -1.81732
C          3.67605       -0.40732       -0.17483
O         -2.68274       -0.47358       -0.32800
C         -3.09282       -1.10747        0.73970
O         -2.38528       -1.37038        1.69635
C         -4.55366       -1.47739        0.66888
H         -5.15732       -0.56507        0.78754
H         -4.79980       -1.90686       -0.31178
H         -4.79515       -2.18158        1.47372
H         -0.64612       -2.16231        0.55849
Pd        -0.90281        0.35302       -0.24087
O         -1.29103        2.35641        0.29149
C         -0.05747        2.60117        0.17487
O          0.69801        1.62929       -0.16057
C          0.49717        3.96467        0.38409
H          1.52691        3.90188        0.75811
H          0.51299        4.48745       -0.58486
H         -0.13969        4.53099        1.07475
Cl         4.21306       -0.85741        1.45509
H          3.71202        0.68892       -0.25339
H          4.38193       -0.82276       -0.90658
