40
Styrene_H13_Int1_Sub21.log	Energy: -634961.3617090
C         -0.52313       -1.71704        0.12141
C          0.85832       -1.52290       -0.07828
C         -1.08563       -1.51336        1.40899
C          1.68224       -1.10858        0.96276
H          1.27516       -1.71260       -1.06884
C         -0.23085       -1.14810        2.48093
H         -2.11606       -1.81580        1.60616
C          3.10926       -0.83352        0.78454
C          1.11091       -0.94586        2.25376
H         -0.64683       -1.02989        3.48354
C          3.72001       -0.56740       -0.37914
H          3.70718       -0.81191        1.70370
H          1.76113       -0.64279        3.07829
H          3.12519       -0.53424       -1.30197
C          5.17934       -0.27277       -0.53970
O         -3.28095       -0.42096       -0.09332
C         -3.50543       -0.95293       -1.26469
O         -2.65088       -1.17816       -2.10306
C         -4.96852       -1.26096       -1.48636
H         -5.39438       -1.77360       -0.61280
H         -5.51783       -0.31558       -1.61010
H         -5.08528       -1.87236       -2.38898
H         -1.12823       -2.12264       -0.69287
Pd        -1.49052        0.33175        0.23264
O         -1.67989        2.37746       -0.29967
C         -0.48849        2.55503        0.07785
O          0.14043        1.54768        0.53639
C          0.15787        3.89653        0.02034
H         -0.13448        4.46784        0.91484
H          1.24992        3.79279        0.00956
H         -0.19420        4.44544       -0.86255
H          5.64928       -0.33165        0.45781
C          5.84074       -1.31385       -1.44413
H          6.91657       -1.10784       -1.55701
H          5.72647       -2.32927       -1.03663
H          5.39177       -1.30216       -2.45092
C          5.38340        1.14124       -1.08548
H          4.93789        1.89485       -0.41922
H          6.45519        1.36890       -1.19529
H          4.91547        1.25054       -2.07766
