34
Styrene_H9_Int1_Sub9.log	Energy: -772408.9635931
C         -0.02543       -0.16902       -1.60884
C          0.69645       -1.34679       -1.24120
C         -1.33308       -0.27311       -2.13946
C          2.03061       -1.26518       -0.65240
C          0.08920       -2.57789       -1.44253
C         -1.92041       -1.54977       -2.32475
H         -1.81336        0.61638       -2.55316
C          2.56563       -0.16121       -0.11586
H          2.60591       -2.19587       -0.62968
C         -1.20987       -2.67918       -1.97665
H          0.62770       -3.48800       -1.16754
H         -2.92111       -1.62680       -2.75362
H          2.02717        0.79301       -0.04808
C          3.92994       -0.15588        0.48569
H         -1.65442       -3.66727       -2.11369
O         -1.49450        2.14790       -0.52878
C         -0.42991        2.86361       -0.29866
O          0.64368        2.41147        0.06666
C         -0.65521        4.33953       -0.51734
H         -1.22758        4.51600       -1.43801
H         -1.25041        4.73324        0.32042
H          0.30902        4.86020       -0.55187
H          0.50593        0.78342       -1.64165
Pd        -1.43351        0.26252        0.04435
O         -2.17230        0.29087        2.02229
C         -2.06214       -0.96734        2.05284
O         -1.62772       -1.54120        1.00143
C         -2.44953       -1.75693        3.25369
H         -1.95488       -2.73580        3.24344
H         -2.19811       -1.19896        4.16488
H         -3.53973       -1.90944        3.23865
F          4.54082       -1.34410        0.40542
F          3.88295        0.18032        1.77924
F          4.71785        0.73787       -0.12356
