31
Styrene_H13_Int1_Sub18.log	Energy: -849330.6039013
C         -0.27689       -1.72094        0.00817
C          1.08060       -1.53035       -0.32327
C         -0.70425       -1.55160        1.35072
C          2.00459       -1.14904        0.64304
H          1.39580       -1.70238       -1.35389
C          0.25569       -1.22328        2.34255
H         -1.71369       -1.85002        1.64079
C          3.40733       -0.87392        0.33247
C          1.56995       -1.02132        1.98990
H         -0.05748       -1.13316        3.38459
C          3.85515       -0.51186       -0.87599
H          4.12271       -0.93363        1.15845
H          2.30145       -0.74597        2.75346
H          3.20327       -0.36732       -1.74073
Cl         5.51121       -0.19789       -1.20391
O         -3.01903       -0.40184        0.08693
C         -3.35459       -0.89108       -1.07715
O         -2.57982       -1.09167       -1.99553
C         -4.83404       -1.18104       -1.17647
H         -5.18659       -1.71552       -0.28362
H         -5.38183       -0.22792       -1.22432
H         -5.03646       -1.76443       -2.08244
H         -0.96188       -2.10322       -0.75220
Pd        -1.19922        0.32860        0.26170
O         -1.42482        2.39010       -0.17246
C         -0.20049        2.55127        0.09039
O          0.46448        1.52368        0.44276
C          0.44372        3.89255        0.02337
H          0.24287        4.42714        0.96461
H          1.52897        3.78900       -0.09843
H          0.00914        4.47720       -0.79764
