40
Styrene_H13_Int1_Sub5.log	Energy: -634959.7163227
C          0.13531       -1.19902        0.98054
C         -1.15257       -1.05786        1.54924
C          0.30221       -1.69575       -0.34334
C         -2.29161       -1.37552        0.82263
H         -1.22533       -0.69685        2.57651
C         -0.87398       -2.04475       -1.05510
C          1.67045       -2.10656       -0.84590
C         -3.64893       -1.19033        1.34667
C         -2.11905       -1.89518       -0.48552
H         -0.78745       -2.45080       -2.06477
C         -3.99671       -0.41579        2.38065
H         -4.43508       -1.73016        0.80655
H         -3.00799       -2.16733       -1.06055
H         -3.26470        0.18068        2.93249
H         -5.03841       -0.34051        2.70021
O          2.18678        0.71578        0.28498
C          2.41599        1.12948        1.50361
O          1.55088        1.29933        2.34370
C          3.88172        1.37986        1.76898
H          4.48566        0.52138        1.44288
H          4.21058        2.25084        1.18275
H          4.03679        1.57587        2.83649
H          1.00462       -1.09523        1.63201
Pd         0.27905        0.65349       -0.21109
O         -0.06271        2.56157       -1.06540
C         -1.25243        2.21377       -1.30443
O         -1.59855        1.03620       -0.96749
C         -2.21426        3.12699       -1.98341
H         -2.13423        2.97779       -3.07131
H         -3.24098        2.89153       -1.67608
H         -1.96599        4.17193       -1.75926
H          2.40332       -1.57164       -0.22326
C          1.85648       -3.61041       -0.63276
H          2.87394       -3.91645       -0.92118
H          1.70260       -3.88943        0.42056
H          1.14411       -4.19076       -1.24089
C          1.92146       -1.70499       -2.29473
H          1.80769       -0.61891       -2.42961
H          2.94524       -1.97711       -2.59215
H          1.23356       -2.21182       -2.99023
