40
Styrene_H9_Int1_Sub5.log	Energy: -634960.6677274
C         -0.70391        0.90294        0.97322
C          0.30905        1.53000        1.77306
C         -1.01965        1.38767       -0.32798
C          0.60601        1.08645        3.13577
C          1.00395        2.59745        1.22456
C         -0.24535        2.45979       -0.84793
C         -2.32936        1.01290       -0.99369
C          0.26150       -0.09135        3.67348
H          1.18630        1.79968        3.73212
C          0.73896        3.04511       -0.08143
H          1.77985        3.08892        1.81610
H         -0.46433        2.84337       -1.84587
H         -0.25613       -0.87003        3.10300
H          0.54090       -0.32165        4.70484
H          1.31841        3.87700       -0.48844
O         -1.17065       -1.66562       -0.45967
C         -1.40982       -2.42049        0.57445
O         -0.85500       -2.31541        1.65480
C         -2.46478       -3.46670        0.30020
H         -3.34895       -3.01095       -0.16737
H         -2.06412       -4.20389       -0.41144
H         -2.74033       -3.97015        1.23433
H         -1.39626        0.21438        1.46351
Pd         0.38941       -0.46058       -0.36096
O          1.94556       -1.64751       -1.16510
C          2.73037       -0.66812       -1.02338
O          2.24380        0.41170       -0.55739
C          4.17960       -0.77478       -1.35111
H          4.58987        0.21319       -1.59442
H          4.70919       -1.16544       -0.46842
H          4.32895       -1.47894       -2.17937
H         -2.67443        0.08585       -0.51493
C         -3.35660        2.11220       -0.71302
H         -4.34135        1.82657       -1.11400
H         -3.46756        2.29254        0.36693
H         -3.06359        3.06420       -1.18370
C         -2.19262        0.73209       -2.48504
H         -1.47961       -0.08464       -2.66828
H         -3.16472        0.43047       -2.90323
H         -1.85867        1.61975       -3.04546
