43
Styrene_H13_Int1_Sub20.log	Energy: -659611.4597606
C         -0.76065       -1.72404        0.06727
C          0.61851       -1.52658       -0.14556
C         -1.30472       -1.55765        1.36805
C          1.45721       -1.14385        0.89553
H          1.02224       -1.68800       -1.14652
C         -0.43379       -1.22913        2.43903
H         -2.33338       -1.86282        1.57016
C          2.88101       -0.85778        0.70372
C          0.90519       -1.02311        2.19950
H         -0.83551       -1.14161        3.45058
C          3.44636       -0.50364       -0.45931
H          3.49531       -0.90429        1.60846
H          1.56783       -0.74733        3.02375
H          2.80259       -0.40673       -1.34322
C          4.89600       -0.18088       -0.71187
O         -3.51505       -0.40905       -0.06953
C         -3.75868       -0.90482       -1.25287
O         -2.91723       -1.10901       -2.10969
C         -5.22635       -1.19913       -1.46278
H         -5.64236       -1.73597       -0.59906
H         -5.77255       -0.24791       -1.55004
H         -5.35902       -1.78244       -2.38165
H         -1.37805       -2.10402       -0.75010
Pd        -1.71605        0.32403        0.25337
O         -1.89847        2.38586       -0.21891
C         -0.70064        2.54447        0.14622
O         -0.07293        1.52070        0.56857
C         -0.04435        3.88211        0.11547
H         -0.31558        4.42963        1.03125
H          1.04646        3.76990        0.08205
H         -0.40738        4.45903       -0.74481
C          5.75530       -0.31631        0.54243
H          6.80460       -0.07779        0.31094
H          5.42389        0.37219        1.33495
H          5.72547       -1.34125        0.94302
C          5.41085       -1.14176       -1.79429
H          4.80970       -1.06628       -2.71402
H          6.45499       -0.90568       -2.05439
H          5.37057       -2.18566       -1.44767
C          4.97483        1.26009       -1.23770
H          6.01442        1.52336       -1.48983
H          4.36512        1.38736       -2.14601
H          4.61162        1.97489       -0.48351
