47
Styrene_H13_Int1_Sub11.log	Energy: -708158.1537510
C          1.18350       -1.63308        0.77900
C          0.27434       -1.32924        1.81458
C          0.69428       -1.73899       -0.54591
C         -1.06681       -1.08461        1.55703
H          0.63738       -1.29975        2.84344
C         -0.68542       -1.54304       -0.79430
H          1.34124       -2.12666       -1.33553
C         -1.95655       -0.71429        2.66853
C         -1.56512       -1.19739        0.21577
H         -1.04544       -1.65542       -1.81714
C         -1.59467        0.04884        3.70606
H         -2.98544       -1.08686        2.62692
C         -3.00789       -0.86945       -0.08294
H         -0.59735        0.49399        3.76844
H         -2.29490        0.27073        4.51490
O          3.21908       -0.46871       -1.12636
C          4.22253       -0.72355       -0.32970
O          4.17167       -0.68497        0.88651
C          5.48451       -1.07089       -1.08540
H          5.27495       -1.80770       -1.87313
H          5.86688       -0.16487       -1.57901
H          6.23932       -1.45382       -0.38842
H          2.21024       -1.90872        1.02848
Pd         1.59845        0.29142       -0.30732
O          1.82370        2.39530       -0.53231
C          0.67815        2.54250       -0.02549
O          0.04787        1.49179        0.32283
C          0.05640        3.88749        0.13404
H         -0.51873        4.11885       -0.77594
H         -0.63396        3.88694        0.98707
H          0.83315        4.65264        0.25576
H         -3.62352       -1.30561        0.72513
C         -3.54459       -1.44426       -1.39323
H         -3.38398       -2.53438       -1.42446
H         -2.98306       -1.01633       -2.24232
C         -5.02168       -1.11151       -1.57516
H         -5.38829       -1.53009       -2.52609
H         -5.60660       -1.60130       -0.77559
C         -5.26189        0.39348       -1.52754
H         -6.33712        0.61499       -1.62304
H         -4.76925        0.86401       -2.39776
C         -4.70226        1.00404       -0.24763
H         -5.28306        0.63285        0.61658
H         -4.82939        2.09878       -0.25537
C         -3.23340        0.65235       -0.04748
H         -2.61606        1.10732       -0.84168
H         -2.85508        1.06723        0.89858
