33
Thiophene_H6_Int1_Sub5.log	Energy: -787681.2163903
C         -0.87705        0.71008       -1.12238
C         -1.04703        1.30570        0.15304
S          0.08217        1.71349       -2.17589
C         -0.30223        2.53229        0.24359
C         -2.13395        0.92700        1.13119
C          0.33548        2.85654       -0.91717
H         -0.24576        3.13888        1.14727
H          0.99220        3.70980       -1.08800
O         -0.93945       -1.76866        0.38567
C         -1.30126       -2.49327       -0.63906
O         -0.97788       -2.27561       -1.79323
C         -2.18564       -3.65291       -0.24218
H         -1.59874       -4.36672        0.35466
H         -3.01497       -3.30624        0.39052
H         -2.56996       -4.15066       -1.14019
H         -1.50320       -0.05867       -1.57978
Pd         0.47456       -0.41939        0.09492
O          2.22913       -1.37940        0.82047
C          2.87395       -0.32443        0.56909
O          2.22987        0.66020        0.08135
C          4.33334       -0.21764        0.85305
H          4.76503        0.64557        0.33251
H          4.47501       -0.09383        1.93754
H          4.83821       -1.14610        0.55483
H         -2.44035       -0.09967        0.88517
C         -1.64518        0.93363        2.57502
H         -2.45570        0.62648        3.25270
H         -0.80642        0.23504        2.71195
H         -1.31376        1.93585        2.89085
C         -3.33019        1.85952        0.92913
H         -3.68893        1.83332       -0.11067
H         -4.16204        1.55916        1.58464
H         -3.07000        2.90262        1.16969
