33
Thiophene_H6_Int1_Sub21.log	Energy: -787682.4321522
C          0.02744       -1.53407       -0.35577
C         -0.07543       -1.41762        1.04698
S         -1.51924       -1.31464       -1.10452
C         -1.41026       -1.11013        1.46560
H          0.71998       -1.73967        1.72191
C         -2.29134       -1.00233        0.42542
H         -1.69823       -0.95201        2.50544
C         -3.73650       -0.60682        0.47996
O          2.63682       -0.45855        0.62305
C          3.28886       -1.16629       -0.25776
O          2.84347       -1.55916       -1.32241
C          4.70647       -1.45650        0.18101
H          5.29229       -0.52636        0.13146
H          4.72670       -1.79876        1.22478
H          5.15355       -2.20650       -0.48203
H          0.85985       -1.96218       -0.92698
Pd         0.90461        0.37779        0.18945
O          1.37474        2.45164       -0.00944
C          0.14530        2.68098       -0.16573
O         -0.65250        1.68699       -0.13210
C         -0.37840        4.06426       -0.35135
H         -1.28230        4.04760       -0.97356
H         -0.64606        4.47474        0.63463
H          0.39326        4.70493       -0.79563
H         -3.99000       -0.56094        1.55282
C         -3.94609        0.78605       -0.11928
H         -4.98994        1.10795        0.01664
H         -3.27473        1.52088        0.34512
H         -3.72720        0.78167       -1.19873
C         -4.63752       -1.64834       -0.18230
H         -4.50310       -2.64273        0.26807
H         -5.69532       -1.36261       -0.08065
H         -4.41829       -1.73281       -1.25917
