40
Thiophene_H6_Int1_Sub19.log	Energy: -860882.7272407
C          0.71552       -1.54724       -0.33257
C          0.64177       -1.42735        1.07207
S         -0.84967       -1.34610       -1.04758
C         -0.68581       -1.13149        1.51897
H          1.45556       -1.73791        1.73022
C         -1.59062       -1.03503        0.49744
H         -0.95295       -0.97229        2.56410
C         -3.03110       -0.64870        0.57980
O          3.33393       -0.43909        0.58123
C          3.97405       -1.14223       -0.31180
O          3.50970       -1.54298       -1.36538
C          5.40404       -1.41612        0.09646
H          5.97807       -0.47938        0.03489
H          5.45034       -1.75822        1.13948
H          5.84543       -2.16104       -0.57604
H          1.53857       -1.97116       -0.91997
Pd         1.58267        0.37566        0.18319
O          2.01885        2.45758       -0.02882
C          0.78314        2.66765       -0.15947
O          0.00151        1.66167       -0.10842
C          0.23409        4.04255       -0.33458
H         -0.69415        4.00945       -0.91900
H          0.00298        4.45832        0.65842
H          0.97882        4.68917       -0.81493
H         -3.28200       -0.62851        1.65585
C         -3.95660       -1.66469       -0.10125
H         -3.79340       -2.66532        0.32966
H         -3.68140       -1.73691       -1.16969
C         -5.41944       -1.25402        0.01774
H         -6.05781       -1.98447       -0.50444
H         -5.71819       -1.28710        1.08123
C         -5.65568        0.15006       -0.52773
H         -6.71030        0.44017       -0.39520
H         -5.46711        0.15166       -1.61658
C         -4.73471        1.16572        0.13954
H         -5.00093        1.25202        1.20885
H         -4.88427        2.16659       -0.29643
C         -3.27111        0.76191        0.01766
H         -2.96588        0.77233       -1.04378
H         -2.60669        1.47653        0.52521
