29
Thiophene_H6_Int1_Sub23.log	Energy: -773095.0756254
C          0.01665       -1.51024        0.19724
C          0.19605       -1.42741       -1.20742
S          1.58092       -1.48248        0.99560
C          1.53133       -1.24736       -1.60419
H         -0.63043       -1.60079       -1.89926
C          2.40167       -1.22138       -0.51667
H          1.85659       -1.09247       -2.63266
N          3.73012       -1.01045       -0.53687
O         -2.50068       -0.23030       -0.52167
C         -3.17987       -0.99317        0.28492
O         -2.74295       -1.56597        1.26992
C         -4.63261       -1.10597       -0.12622
H         -5.13035       -0.14088        0.05169
H         -4.71388       -1.31931       -1.20107
H         -5.12704       -1.88799        0.46214
H         -0.82373       -1.97930        0.72470
Pd        -0.68273        0.43935       -0.11877
O         -0.89248        2.59571       -0.02680
C          0.35274        2.66357        0.12965
O          1.02106        1.57741        0.15428
C          1.04796        3.97948        0.26225
H          2.07397        3.84295        0.62452
H          1.07252        4.46957       -0.72291
H          0.48044        4.63053        0.94072
H          4.12559       -0.71952       -1.42059
C          4.51938       -0.84167        0.65401
H          5.57532       -0.73147        0.37760
H          4.43359       -1.72542        1.30772
H          4.20789        0.04698        1.23210
