27
Thiophene_H6_Int1_Sub6.log	Energy: -738380.9468307
C         -0.30037        1.60210       -0.48308
C          0.05690        1.78751        0.87707
S          1.02127        1.99548       -1.54933
C          1.44024        2.15825        0.99267
C         -0.91145        1.92158        2.01063
C          2.05905        2.30091       -0.21411
H          1.94034        2.30337        1.95070
H          3.10929        2.53466       -0.38945
O         -1.94844       -0.53014        0.55563
C         -2.74948       -0.55851       -0.47609
O         -2.41064       -0.32517       -1.62268
C         -4.16882       -0.91352       -0.09770
H         -4.19876       -1.95577        0.25304
H         -4.51642       -0.28215        0.73225
H         -4.82483       -0.79778       -0.96841
H         -1.30688        1.58538       -0.90544
Pd        -0.01109       -0.41180        0.18093
O          0.65315       -2.42856        0.30650
C          1.82635       -2.02443        0.07959
O          2.00288       -0.77052       -0.06129
C          2.96710       -2.97365       -0.05758
H          3.91276       -2.47418        0.18692
H          2.80727       -3.85079        0.58213
H          3.01286       -3.31606       -1.10302
H         -0.46904        1.55194        2.94667
H         -1.83425        1.36286        1.81538
H         -1.15533        2.98742        2.15193
