33
Toluene_H10_Int1_Sub130.log	Energy: -906355.1130668
C         -0.47144       -0.50023        1.93826
C         -0.11563       -1.86964        2.13697
C          0.42697        0.39459        1.31317
C          1.11843       -2.29525        1.68141
C         -1.07423       -2.78425        2.83009
C          1.68237       -0.07996        0.83595
H          0.20822        1.46587        1.29102
C          2.00511       -1.41362        1.03250
H          1.41156       -3.33869        1.81967
H         -1.31201       -2.41156        3.83910
H         -2.02468       -2.84066        2.27670
H         -0.66889       -3.80032        2.92376
Si         2.78938        1.01173       -0.13515
H          2.96234       -1.79896        0.67270
O         -2.42280        1.03112        0.48883
C         -2.14005        2.29490        0.30548
O         -1.05858        2.71296       -0.06820
C         -3.31257        3.20009        0.59683
H         -2.97092        4.24047        0.65075
H         -4.04792        3.09968       -0.21569
H         -3.81251        2.90518        1.52946
H         -1.36396       -0.10397        2.42912
Pd        -1.10064       -0.26128       -0.18644
O         -1.73903       -0.66933       -2.15724
C         -0.77641       -1.47809       -2.27486
O         -0.03937       -1.66117       -1.25051
C         -0.47748       -2.16236       -3.56160
H          0.26904       -1.56277       -4.10545
H         -0.04812       -3.15483       -3.37405
H         -1.38391       -2.23309       -4.17511
F          4.23875        0.33052       -0.25255
F          2.26907        1.24017       -1.63350
F          2.96417        2.45628        0.53029
