30
Toluene_H10_Int1_Sub105.log	Energy: -825451.7264894
C         -0.30993       -1.37892        1.16062
C         -1.46419       -1.03478        1.92296
C         -0.38271       -1.54783       -0.24399
C         -2.65544       -0.85713        1.24270
C         -1.35457       -0.88625        3.40843
C         -1.63276       -1.36687       -0.88458
H          0.47064       -1.92768       -0.81395
C         -2.74903       -1.02364       -0.15244
H         -3.55514       -0.58094        1.79813
H         -1.00156       -1.82026        3.87404
H         -0.62883       -0.10093        3.67181
H         -2.32097       -0.62384        3.85927
Cl        -1.73039       -1.57030       -2.59379
H         -3.70271       -0.87571       -0.66121
O          2.26312       -0.21208        0.63806
C          2.92596       -0.84494       -0.29382
O          2.45882       -1.21339       -1.35602
C          4.37166       -1.07050        0.08432
H          4.83448       -1.76678       -0.62494
H          4.90282       -0.10735        0.05243
H          4.45040       -1.45264        1.11138
H          0.60323       -1.68086        1.67969
Pd         0.47109        0.48651        0.21974
O          0.82749        2.52880       -0.18964
C         -0.41723        2.68929       -0.33254
O         -1.16357        1.67325       -0.14979
C         -0.99595        4.00075       -0.73457
H         -1.00793        4.05396       -1.83428
H         -2.02754        4.08983       -0.37179
H         -0.37204        4.82095       -0.35784
