54
Toluene_H10_Int1_Sub3.log	Energy: -781382.7075273
C          0.43827        0.13802        1.61507
C          1.69000        0.58546        2.12983
C         -0.54600        1.05033        1.11951
C          1.96360        1.97158        2.10080
C          2.58565       -0.34560        2.89251
C         -0.22244        2.39848        1.13188
C         -1.84870        0.54472        0.52189
C          1.01652        2.85098        1.61673
H          2.91858        2.33599        2.48569
H          2.30142       -0.33257        3.95793
H          2.50327       -1.37477        2.52023
H          3.63572       -0.02790        2.82401
H         -0.92911        3.13266        0.74444
H          1.23248        3.92188        1.60086
O          1.92002       -2.01988        0.41874
C          1.06754       -2.82940       -0.14518
O          0.14053       -2.46458       -0.85041
C          1.33292       -4.28139        0.16988
H          0.57253       -4.91032       -0.30749
H          2.33317       -4.56108       -0.19131
H          1.32436       -4.43836        1.25838
H          0.15239       -0.89570        1.80926
Pd         1.72871       -0.13430       -0.14541
O          2.56816       -0.07638       -2.09314
C          2.30123        1.15535       -2.13992
O          1.77781        1.68291       -1.10482
C          2.54366        1.96601       -3.36601
H          1.61115        2.00025       -3.95042
H          2.81418        2.99451       -3.09442
H          3.32512        1.50256       -3.98051
C         -4.31030        1.00364        0.16231
C         -4.10889        0.92976       -1.35393
C         -2.96770       -0.03980       -1.66929
H         -5.03959        0.59497       -1.84267
H         -3.87909        1.93226       -1.75453
C         -1.67458        0.45019       -1.01488
H         -0.85536       -0.25315       -1.23531
H         -1.38375        1.43831       -1.41010
C         -3.02041        1.50096        0.82000
H         -3.15374        1.59201        1.91168
H         -2.79873        2.51020        0.43882
C         -4.66263       -0.38333        0.70131
H         -5.12335        1.71172        0.39469
C         -3.30816       -1.43154       -1.12942
H         -2.81379       -0.09385       -2.75989
C         -3.51936       -1.34730        0.38507
H         -4.21959       -1.81605       -1.61822
H         -2.48673       -2.13070       -1.35346
H         -3.75585       -2.34919        0.78009
C         -2.22670       -0.85531        1.03999
H         -4.83141       -0.33530        1.79089
H         -5.60182       -0.74080        0.24600
H         -1.42810       -1.56932        0.79390
H         -2.33825       -0.82792        2.13836
