31
Toluene_H10_Int1_Sub168.log	Energy: -618210.7537332
C         -0.17233       -1.69102        0.70036
C         -1.34157       -1.48268        1.49065
C         -0.20309       -1.54843       -0.71236
C         -2.49940       -1.10579        0.83693
C         -1.27992       -1.67280        2.97399
C         -1.40652       -1.17253       -1.34561
H          0.66152       -1.82856       -1.31917
C         -2.52304       -0.94745       -0.56273
H         -3.42800       -0.91896        1.38173
H         -0.94316       -2.69018        3.22792
H         -0.56150       -0.97216        3.42757
H         -2.25992       -1.50812        3.44078
H         -1.47687       -1.05830       -2.42860
N         -3.79537       -0.54796       -1.11162
O          2.41763       -0.48880        0.38105
C          3.06343       -0.75443       -0.72502
O          2.57506       -0.69978       -1.83898
C          4.50386       -1.13316       -0.47650
H          4.94408       -1.53425       -1.39700
H          5.05960       -0.23590       -0.16532
H          4.57932       -1.86374        0.34057
H          0.71786       -2.11869        1.16871
Pd         0.63923        0.33235        0.19612
O          1.02004        2.40299        0.34848
C         -0.22345        2.61267        0.27108
O         -0.98154        1.59196        0.18203
C         -0.78798        3.98888        0.24652
H         -0.84618        4.32272       -0.80114
H         -1.80217        3.99157        0.66537
H         -0.13180        4.67772        0.79288
O         -3.79739       -0.34074       -2.29236
