36
Toluene_H10_Int1_Sub153.log	Energy: -680035.2335529
C          0.39250       -1.67921        0.83219
C         -0.61660       -1.45743        1.81597
C          0.10253       -1.53938       -0.54775
C         -1.86913       -1.07141        1.38307
C         -0.29076       -1.64016        3.26578
C         -1.19826       -1.15725       -0.95164
H          0.83333       -1.83294       -1.30487
C         -2.16184       -0.91664        0.00882
H         -2.67266       -0.87259        2.09554
H          0.07943       -2.65871        3.46274
H          0.50204       -0.94272        3.57900
H         -1.17025       -1.46540        3.89943
H         -1.43501       -1.05051       -2.01008
C         -3.54004       -0.47640       -0.34727
O          2.89409       -0.52355        0.01683
C          3.31805       -0.78931       -1.19074
O          2.63600       -0.71368       -2.19669
C          4.77174       -1.20001       -1.21438
H          5.03041       -1.58662       -2.20718
H          5.39499       -0.32184       -0.98840
H          4.97550       -1.95250       -0.44009
H          1.34820       -2.11557        1.13373
Pd         1.12534        0.32631        0.17316
O          1.55732        2.39501        0.24958
C          0.32464        2.61973        0.40990
O         -0.45236        1.61191        0.46086
C         -0.21340        4.00502        0.50108
H         -0.41404        4.36976       -0.51824
H         -1.15461        4.01184        1.06483
H          0.52856        4.66894        0.96234
O         -4.41463       -0.27819        0.45789
O         -3.70263       -0.32374       -1.66315
C         -4.98787        0.09850       -2.08215
H         -4.94538        0.17637       -3.17444
H         -5.24163        1.07276       -1.63914
H         -5.75595       -0.62883       -1.78033
