49
TwoHchromene_H8_deriv1_Int1_Sub11.log	Energy: -1067561.4447061
C         -0.42089        0.05206       -1.61364
C          0.91098       -0.17563       -1.18887
C         -1.37652       -0.96627       -1.41545
C          1.29310       -1.41680       -0.59382
H          1.67856        0.54607       -1.47646
C         -1.02254       -2.17696       -0.82965
O         -2.63796       -0.73376       -1.84451
C          0.32008       -2.38150       -0.43274
C          2.70445       -1.62244       -0.11380
C         -2.07160       -3.16020       -0.65545
C         -3.67396       -1.40821       -1.23596
H          0.58042       -3.33427        0.03664
C         -3.35132       -2.80718       -0.86297
H         -1.80652       -4.17313       -0.34326
Cl        -4.20717       -0.50266        0.29465
H         -4.54420       -1.31356       -1.89406
H         -4.18364       -3.49705       -0.71352
O          0.78508        2.60087       -0.34193
C          0.17830        3.34904       -1.22397
O         -0.85167        3.05848       -1.80430
C          0.89887        4.65849       -1.45330
H          1.97673        4.49127       -1.58530
H          0.47535        5.16556       -2.32829
H          0.77337        5.29463       -0.56425
H         -0.70522        0.95046       -2.17051
Pd        -0.10320        1.00776        0.40087
O         -0.87961        1.65501        2.27345
C         -1.26395        0.47161        2.48106
O         -0.95664       -0.40536        1.60735
C         -2.06865        0.08931        3.67278
H         -2.16431        0.93522        4.36321
H         -3.06255       -0.23108        3.32619
H         -1.60068       -0.76908        4.17492
H          2.76980       -2.65749        0.26786
C          3.03986       -0.68193        1.05409
H          2.29752       -0.81732        1.85729
H          2.93594        0.36418        0.71277
C          4.45489       -0.90892        1.57172
H          4.67586       -0.19907        2.38479
H          4.52235       -1.91922        2.01487
C          5.48477       -0.77995        0.45477
H          6.49700       -0.98509        0.83870
H          5.49548        0.26385        0.09207
C          5.15973       -1.70992       -0.70909
H          5.25700       -2.75892       -0.37500
H          5.88846       -1.57719       -1.52482
C          3.74541       -1.48152       -1.23109
H          3.68012       -0.46706       -1.66334
H          3.51260       -2.18385       -2.04776
