49
TwoHchromene_H8_deriv1_Int1_Sub27.log	Energy: -1067561.3324823
C          0.69917        0.53810       -1.49065
C          1.84093        0.09972       -2.20728
C         -0.33564       -0.39131       -1.23647
C          1.91237       -1.23682       -2.67867
H          2.58329        0.83425       -2.52619
C         -0.25566       -1.70876       -1.67660
O         -1.41883        0.06326       -0.57693
C          0.88404       -2.11250       -2.41130
H          2.78383       -1.56019       -3.24993
C         -1.36072       -2.58399       -1.34721
C         -2.21935       -0.81647        0.13383
H          0.93868       -3.14733       -2.75802
C         -2.30633       -2.16497       -0.49106
H         -1.39543       -3.58544       -1.78244
Cl        -1.40747       -1.10998        1.80645
C         -3.56399       -0.14125        0.38420
H         -3.13542       -2.80223       -0.17825
O          3.13518        1.83817       -0.22488
C          2.46947        2.93350        0.02289
O          1.26661        3.00154        0.20213
C          3.36831        4.14819        0.07691
H          4.07381        4.14887       -0.76525
H          2.75894        5.05970        0.07389
H          3.96325        4.10896        1.00182
H          0.53803        1.58699       -1.22178
Pd         2.28327        0.07773        0.00485
O          2.90885       -0.57235        1.92831
C          2.29117       -1.65357        1.72288
O          1.75015       -1.80952        0.57909
C          2.15757       -2.70714        2.76492
H          2.76489       -2.46136        3.64367
H          1.09619       -2.77722        3.04655
H          2.45454       -3.67986        2.34849
H         -4.12707       -0.83482        1.03415
C         -4.32696        0.02047       -0.93536
H         -4.44230       -0.95520       -1.43527
H         -3.72135        0.64783       -1.61181
C         -5.69001        0.66770       -0.71598
H         -6.20070        0.79741       -1.68370
H         -6.32345       -0.01417       -0.11988
C         -5.56716        2.00197        0.00992
H         -6.56486        2.43276        0.19260
H         -5.03113        2.71862       -0.63799
C         -4.80292        1.84374        1.31885
H         -5.39397        1.21742        2.01188
H         -4.67989        2.81978        1.81429
C         -3.43759        1.20304        1.09984
H         -2.80474        1.86924        0.49030
H         -2.91421        1.06364        2.05625
