45
TwoHchromene_H8_deriv1_Int1_Sub12.log	Energy: -1019010.4792776
C          0.11563        0.00054       -1.56239
C          1.25843       -0.63789       -1.02342
C         -1.13439       -0.64206       -1.44469
C          1.17262       -1.91911       -0.39264
H          2.23719       -0.21206       -1.25218
C         -1.24041       -1.88083       -0.82544
O         -2.21134       -0.02550       -1.98165
C         -0.07523       -2.50276       -0.31368
C          2.44169       -2.54974        0.17076
C         -2.56271       -2.46486       -0.73670
C         -3.45743       -0.31054       -1.46696
H         -0.20065       -3.47136        0.17168
C         -3.63723       -1.72493       -1.05838
H         -2.66769       -3.49772       -0.39602
Cl        -3.79778        0.77149        0.00361
H         -4.19153        0.03633       -2.20191
H         -4.65766       -2.10350       -0.97845
O          1.99777        2.04632       -0.19362
C          1.77298        2.91132       -1.14606
O          0.77353        2.95164       -1.84004
C          2.90891        3.89740       -1.30017
H          3.87739        3.37861       -1.29884
H          2.77772        4.47152       -2.22499
H          2.90431        4.58296       -0.43945
H          0.19321        0.92344       -2.14623
Pd         0.56301        0.86703        0.46239
O         -0.11509        1.79884        2.25205
C         -0.88836        0.81745        2.42556
O         -0.81529       -0.14040        1.58648
C         -1.87429        0.76219        3.53857
H         -1.75669        1.62567        4.20336
H         -2.88410        0.75314        3.10197
H         -1.74728       -0.17545        4.09796
C          2.15616       -3.89086        0.84549
H          3.09105       -4.31149        1.24492
H          1.45531       -3.78132        1.68710
H          1.73898       -4.62480        0.13891
C          3.44483       -2.77767       -0.96998
H          3.72173       -1.83682       -1.46822
H          4.36999       -3.22840       -0.57818
H          3.02965       -3.45519       -1.73176
C          3.05085       -1.59641        1.21148
H          3.96475       -2.03539        1.64178
H          3.31977       -0.62366        0.77301
H          2.33935       -1.40807        2.03030
