49
TwoHchromene_H8_Int1_Sub19.log	Energy: -779237.5348626
C         -1.30058        1.41722       -1.05134
C         -2.18689        1.98555       -0.09817
C          0.06180        1.81349       -1.04871
C         -1.71090        2.93879        0.82764
H         -3.25520        1.77388       -0.17849
C          0.53108        2.74268       -0.11475
O          0.86259        1.30366       -1.98727
C         -0.37665        3.29982        0.80832
H         -2.39797        3.38398        1.54850
C          1.93466        3.11583       -0.20956
C          2.24022        1.13189       -1.62828
H         -0.00079        4.03536        1.52429
C          2.76096        2.37662       -0.96452
H          2.28322        4.00510        0.32177
C          2.38852       -0.12120       -0.75755
H          2.74819        0.96772       -2.59155
H          3.81555        2.63509       -1.08010
O         -3.02081       -0.81573       -0.37238
C         -2.74231       -1.59084       -1.38657
O         -1.62871       -1.73557       -1.85776
C         -3.95759       -2.31086       -1.92046
H         -4.80379       -1.61857       -2.02894
H         -3.71629       -2.78082       -2.88119
H         -4.25840       -3.08598       -1.19967
H         -1.65262        0.82287       -1.89639
Pd        -1.46070       -0.07801        0.57089
O         -0.92116       -1.57480        1.97836
C         -0.01857       -0.80651        2.41005
O          0.08833        0.34125        1.86534
C          0.88535       -1.20388        3.52541
H          0.49879       -0.77754        4.46391
H          0.91546       -2.29616        3.61926
H          1.89087       -0.79648        3.35717
H          1.83886        0.08547        0.18010
C          3.84715       -0.39030       -0.38966
H          4.28122        0.47750        0.13318
H          4.43488       -0.52878       -1.31714
C          3.97929       -1.63666        0.48043
H          5.04042       -1.82727        0.70973
H          3.48266       -1.44703        1.44966
C          3.34332       -2.85727       -0.17568
H          3.41594       -3.73156        0.49186
H          3.91520       -3.11435       -1.08606
C          1.89259       -2.58743       -0.55635
H          1.28602       -2.45594        0.35753
H          1.45660       -3.45324       -1.07866
C          1.75761       -1.34308       -1.42470
H          2.26094       -1.51580       -2.39496
H          0.69632       -1.16247       -1.64840
