33
TwoHchromene_H8_deriv1_Int1_Sub10.log	Energy: -1208728.5061502
C         -0.24022        0.50866       -1.46945
C         -0.93649        1.55843       -0.82122
C          1.16789        0.46526       -1.37702
C         -0.19909        2.55815       -0.12945
H         -2.00221        1.70608       -1.00460
C          1.87743        1.43594       -0.67533
O          1.80192       -0.53782       -2.02121
C          1.17347        2.49438       -0.05660
Cl        -1.06148        3.84466        0.63114
C          3.31877        1.29921       -0.62405
C          3.03732       -0.94298       -1.55838
H          1.72502        3.25743        0.49511
C          3.89007        0.16492       -1.06123
H          3.91846        2.11707       -0.21819
Cl         2.82700       -2.17655       -0.19433
H          3.49714       -1.53050       -2.36008
H          4.96714       -0.00511       -1.01656
O         -2.83152       -0.57788       -0.18064
C         -3.04381       -1.32636       -1.22919
O         -2.18831       -1.71348       -2.00508
C         -4.50345       -1.68648       -1.38529
H         -5.14040       -0.80403       -1.23586
H         -4.67197       -2.12486       -2.37600
H         -4.77289       -2.41935       -0.60990
H         -0.75927       -0.21004       -2.11443
Pd        -1.01413       -0.24422        0.49372
O         -0.82876       -1.54312        2.16366
C          0.31166       -1.04745        2.37697
O          0.68436       -0.09349        1.61571
C          1.21505       -1.54796        3.44704
H          0.72424       -2.33583        4.02984
H          2.12856       -1.93649        2.97303
H          1.50916       -0.71392        4.10001
