37
TwoHchromene_H8_deriv1_Int1_Sub8.log	Energy: -992225.5880887
C         -0.52275       -1.03911        1.06291
C         -0.57453       -2.34888        0.48993
C          0.75611       -0.53898        1.43632
C          0.61084       -3.05644        0.23288
O         -1.70832       -2.95866        0.18238
C          1.94038       -1.23343        1.17195
O          0.78137        0.62001        2.12107
C          1.82962       -2.49886        0.56897
H          0.53898       -4.04042       -0.23064
C          3.18432       -0.61686        1.57637
C          1.91329        1.41352        2.02974
H          2.74672       -3.05573        0.35968
C          3.18604        0.65399        2.01334
H          4.10839       -1.19727        1.51930
Cl         1.81132        2.44211        0.49342
H          1.84150        2.14980        2.83694
H          4.09663        1.17879        2.30563
O         -2.10717        1.20054       -0.32812
C         -2.85063        1.31000        0.72493
O         -2.81645        0.60486        1.72578
C         -3.82921        2.45965        0.61225
H         -4.33814        2.43545       -0.36103
H         -4.55521        2.41514        1.43262
H         -3.27155        3.40678        0.66392
H         -1.41114       -0.56444        1.52216
Pd        -0.51192        0.12444       -0.77438
O         -0.02417        0.98520       -2.67425
C          0.97401        0.22143       -2.71032
O          1.11809       -0.61090       -1.75167
C          1.98948        0.29490       -3.79763
H          1.54781        0.73082       -4.70205
H          2.81174        0.94405       -3.45872
H          2.40205       -0.70162       -4.00158
C         -2.93211       -2.25763        0.29186
H         -3.11263       -1.90175        1.31627
H         -2.93060       -1.38460       -0.38261
H         -3.71484       -2.96318       -0.00874
