36
TwoHchromene_H8_Int1_Sub17.log	Energy: -843478.3990561
C         -0.52067       -0.98408        1.40240
C         -1.27712       -2.04727        0.84453
C          0.88256       -0.97432        1.21498
C         -0.62797       -3.07649        0.12136
H         -2.33407       -2.13702        1.10354
C          1.51569       -1.97880        0.48853
O          1.56552        0.01907        1.81377
C          0.73935       -3.02682       -0.05130
H         -1.21276       -3.89974       -0.29112
C          2.96181       -1.89946        0.36056
C          2.87280        0.33711        1.38991
H          1.24951       -3.81012       -0.61747
C          3.62105       -0.81943        0.79781
H          3.49792       -2.74153       -0.08390
C          2.80411        1.52658        0.42277
H          3.39523        0.72272        2.28081
H          4.70589       -0.73044        0.71966
O         -3.09692        0.18825        0.41374
C         -3.09455        1.13814        1.31124
O         -2.09472        1.65953        1.76992
C         -4.49101        1.54022        1.72627
H         -5.10988        0.65369        1.92163
H         -4.44214        2.18240        2.61360
H         -4.96283        2.09292        0.89997
H         -0.95132       -0.24666        2.08500
Pd        -1.40493       -0.23522       -0.49808
O         -1.43565        0.94754       -2.25677
C         -0.33813        0.42077       -2.59035
O          0.12756       -0.49273       -1.83340
C          0.42275        0.86769       -3.78858
H         -0.22371        1.43878       -4.46534
H          1.24879        1.50976       -3.44584
H          0.86180        0.00128       -4.30081
F          2.14940        1.21502       -0.69476
F          4.04540        1.89301        0.08550
F          2.20009        2.56616        0.97962
