33
TwoHchromene_H8_Int1_Sub10.log	Energy: -920402.8178508
C         -0.09930       -1.52449       -0.31924
C         -0.07667       -1.01642       -1.64286
C          1.07658       -1.41642        0.46889
C          1.08653       -0.41286       -2.15965
H         -0.92918       -1.20307       -2.29858
C          2.23955       -0.82486       -0.03383
O          1.03851       -1.94306        1.69581
C          2.20831       -0.32379       -1.35624
H          1.10858       -0.02242       -3.17657
C          3.41656       -0.82917        0.82310
C          1.91551       -1.39932        2.67321
Cl         3.62646        0.43205       -1.99490
C          3.27995       -1.13353        2.12033
H          4.38730       -0.59947        0.38146
H          1.46543       -0.46788        3.07420
H          1.93922       -2.13324        3.49002
H          4.13756       -1.16053        2.79678
O         -2.77167       -0.31465       -0.85507
C         -3.40734       -1.11921       -0.04426
O         -2.95007       -1.55947        0.99454
C         -4.79946       -1.44689       -0.53178
H         -4.78643       -1.71034       -1.59834
H         -5.21625       -2.26697        0.06478
H         -5.43476       -0.55504       -0.42315
H         -0.91914       -2.13519        0.06724
Pd        -1.07936        0.45406       -0.20755
O         -1.62477        2.35574        0.55150
C         -0.40607        2.57687        0.79502
O          0.43017        1.66477        0.49201
C          0.04282        3.85078        1.42351
H         -0.34856        4.70049        0.84667
H         -0.37957        3.91912        2.43692
H          1.13734        3.89229        1.47153
