38
TwoHchromene_H8_deriv1_Int1_Sub23.log	Energy: -979774.7670357
C          0.35807       -0.33375       -1.55221
C          0.33012       -1.72594       -1.28214
C         -0.87025        0.37220       -1.43470
C         -0.84314       -2.36781       -0.86667
H          1.22932       -2.31503       -1.47457
C         -2.04808       -0.24145       -1.03607
O         -0.84702        1.67644       -1.77067
C         -2.02648       -1.63797       -0.70100
H         -0.81232       -3.42990       -0.62995
C         -3.24329        0.57502       -1.02644
C         -1.79810        2.52219       -1.23147
N         -3.16554       -2.21664       -0.23881
C         -3.14458        1.91049       -1.14444
H         -4.22778        0.10463       -0.96532
Cl        -1.26969        3.06696        0.45368
H         -1.76591        3.44480       -1.82025
H         -4.01456        2.56870       -1.14776
O          2.97905       -0.72105       -0.18598
C          3.59185        0.09321       -0.99896
O          3.07515        1.01175       -1.61001
C          5.06849       -0.22038       -1.11062
H          5.22576       -1.29731       -1.26172
H          5.50856        0.35455       -1.93406
H          5.56363        0.05187       -0.16640
H          1.20070        0.16764       -2.04037
Pd         1.14840       -0.39236        0.46756
O          1.39549        0.13770        2.53173
C          0.14086        0.18923        2.62480
O         -0.54606       -0.13277        1.59996
C         -0.54574        0.64302        3.86769
H          0.17039        0.74276        4.69159
H         -1.01810        1.61586        3.66366
H         -1.34460       -0.06372        4.13191
H         -3.87693       -1.59204        0.11098
C         -3.23327       -3.58276        0.19797
H         -4.25609       -3.80371        0.52886
H         -2.54347       -3.79604        1.03531
H         -2.99325       -4.27467       -0.62524
