33
TwoHchromene_H8_deriv1_Int1_Sub26.log	Energy: -1208723.9285816
C          0.34201       -1.15686        1.11108
C          1.18105       -0.56260        2.08647
C         -1.00112       -0.72607        1.03370
C          0.66057        0.41540        2.97407
H          2.17883       -0.97427        2.25095
C         -1.50748        0.24884        1.88457
O         -1.77984       -1.32290        0.10014
C         -0.65436        0.80689        2.86562
H          1.30893        0.84854        3.73716
C         -2.88902        0.63803        1.69912
C         -2.90757       -0.68928       -0.35919
H         -1.05982        1.56993        3.53427
C         -3.57504        0.19005        0.63630
H         -3.35593        1.31215        2.42082
Cl        -2.45027        0.33487       -1.81408
Cl        -4.01585       -1.95566       -0.92587
H         -4.60531        0.47553        0.42281
O          3.14345       -0.67182       -0.07517
C          3.09327       -1.81633       -0.70337
O          2.07309       -2.39046       -1.03825
C          4.46982       -2.36858       -0.99386
H          5.12344       -2.27174       -0.11635
H          4.38885       -3.41663       -1.30557
H          4.92269       -1.78043       -1.80631
H          0.67032       -1.99893        0.49182
Pd         1.53204        0.44192        0.10048
O          1.75097        1.91109       -1.41665
C          0.68166        2.44242       -1.00943
O          0.12920        1.92918        0.01953
C          0.05549        3.60463       -1.69549
H          0.68483        3.94942       -2.52396
H         -0.93111        3.29507       -2.07108
H         -0.10625        4.41625       -0.97197
