37
TwoHchromene_H8_deriv1_Int1_Sub24.log	Energy: -992228.0914185
C          0.33415       -0.52332       -1.50567
C          0.39572       -1.84380       -0.99869
C         -0.92095        0.13834       -1.46265
C         -0.75135       -2.48258       -0.47610
H          1.31249       -2.42044       -1.13799
C         -2.05271       -0.46307       -0.93584
O         -0.97589        1.38048       -1.98185
C         -1.95501       -1.79591       -0.43514
H         -0.66659       -3.50095       -0.10143
C         -3.28337        0.29670       -0.92777
C         -1.94837        2.25201       -1.52863
O         -3.09537       -2.29211        0.05676
C         -3.24869        1.60452       -1.23411
H         -4.21244       -0.20966       -0.66435
Cl        -1.35119        3.11143        0.00011
H         -2.00929        3.06252       -2.26246
H         -4.13926        2.23495       -1.22144
O          2.99552       -0.71938       -0.08416
C          3.58854       -0.01533       -1.00906
O          3.04757        0.79641       -1.73823
C          5.07052       -0.30941       -1.08498
H          5.25366       -1.39255       -1.06629
H          5.49113        0.13974       -1.99248
H          5.56424        0.12050       -0.20048
H          1.15876       -0.05838       -2.05684
Pd         1.16261       -0.32055        0.51738
O          1.40873        0.63496        2.41309
C          0.15263        0.66837        2.51252
O         -0.52624        0.10985        1.58813
C         -0.54229        1.35571        3.63537
H          0.17634        1.67454        4.39915
H         -1.06991        2.23028        3.22581
H         -1.29901        0.68711        4.06893
C         -3.09774       -3.58548        0.60386
H         -2.83460       -4.34462       -0.15209
H         -2.39818       -3.66229        1.45301
H         -4.11824       -3.77210        0.95929
