42
TwoHchromene_H8_Int1_Sub13.log	Energy: -706032.9056352
C         -0.36606       -1.41617       -0.78835
C         -0.15413       -0.49461       -1.84270
C          0.72757       -1.72818        0.05965
C          1.11069        0.10267       -2.02155
H         -0.94326       -0.34228       -2.58153
C          1.98201       -1.14220       -0.12769
O          0.50806       -2.63930        1.01753
C          2.16890       -0.19441       -1.17630
H          1.24040        0.81189       -2.83826
C          3.04637       -1.60594        0.75816
C          1.29982       -2.53800        2.19016
C          3.49861        0.51794       -1.30341
C          2.73959       -2.30279        1.86127
H          4.08784       -1.40836        0.49954
H          0.89931       -1.71867        2.82297
H          1.14994       -3.48048        2.73378
H          3.51108       -2.68363        2.53486
O         -2.83300        0.22060       -1.03480
C         -3.62874       -0.69196       -0.54210
O         -3.33234       -1.45723        0.35666
C         -4.98485       -0.69507       -1.20937
H         -4.87936       -0.66945       -2.30280
H         -5.54852       -1.58183       -0.89618
H         -5.53252        0.21196       -0.91261
H         -1.27280       -2.01833       -0.69675
Pd        -1.14714        0.52589       -0.06653
O         -1.57817        2.13105        1.25668
C         -0.37688        2.10235        1.63960
O          0.39768        1.24887        1.09673
C          0.12284        3.00674        2.71406
H         -0.42560        3.95693        2.69413
H         -0.05815        2.52712        3.68850
H          1.20194        3.17176        2.60293
H          4.29011       -0.23590       -1.15035
C          3.74439        1.14595       -2.66921
H          4.76910        1.54308       -2.72093
H          3.62174        0.41658       -3.48385
H          3.06216        1.98935       -2.85869
C          3.62679        1.56409       -0.19042
H          3.48955        1.11821        0.80496
H          4.61426        2.05003       -0.22565
H          2.85169        2.33678       -0.30717
