36
TwoHchromene_H8_Int1_Sub9.log	Energy: -843475.4863517
C         -0.43262       -1.46826       -0.62546
C         -0.24547       -0.61149       -1.73638
C          0.63886       -1.65480        0.28469
C          0.99416        0.04151       -1.92368
H         -1.01081       -0.56476       -2.51304
C          1.87204       -1.02475        0.09378
O          0.42724       -2.49247        1.30530
C          2.02026       -0.16280       -1.02359
H          1.13738        0.70235       -2.77767
C          2.93199       -1.35308        1.04266
C          1.18237       -2.27551        2.48835
C          3.32617        0.56377       -1.22485
C          2.61555       -1.97734        2.18501
H          3.96644       -1.10845        0.80261
H          0.71955       -1.44476        3.06018
H          1.07025       -3.19105        3.08443
H          3.37937       -2.25005        2.91718
O         -2.96328        0.09867       -1.13055
C         -3.73372       -0.84359       -0.65237
O         -3.42988       -1.58676        0.26282
C         -5.06776       -0.91112       -1.35739
H         -4.93442       -0.87332       -2.44729
H         -5.59479       -1.82635       -1.06301
H         -5.66759       -0.03428       -1.07081
H         -1.32062       -2.09432       -0.50560
Pd        -1.33245        0.50910       -0.10952
O         -1.89512        2.12396        1.13510
C         -0.70853        2.17318        1.56344
O          0.12473        1.33910        1.07906
C         -0.29442        3.13984        2.61723
H         -0.88138        4.06319        2.53367
H         -0.49750        2.69278        3.60277
H          0.78042        3.34684        2.54229
F          3.64052        1.30681       -0.16005
F          3.29108        1.37382       -2.28203
F          4.33993       -0.29283       -1.41685
