42
TwoHchromene_H8_Int1_Sub21.log	Energy: -706036.8855513
C         -0.36542       -1.67498        0.59631
C         -0.92978       -2.27396       -0.56053
C          1.03394       -1.44386        0.63949
C         -0.09916       -2.64476       -1.64079
H         -1.98299       -2.56191       -0.54594
C          1.85027       -1.80954       -0.43507
O          1.54194       -0.91117        1.75307
C          1.26115       -2.41427       -1.56421
H         -0.53553       -3.11610       -2.52244
C          3.28105       -1.59879       -0.27185
C          2.72403       -0.11572        1.60553
H          1.91061       -2.70373       -2.39449
C          3.72123       -0.82741        0.73337
H          3.97093       -2.09890       -0.95642
C          2.35492        1.27876        1.07255
H          3.10921       -0.01779        2.63303
H          4.78728       -0.67066        0.91022
O         -2.91794       -0.30789        0.29608
C         -3.00357        0.13722        1.52154
O         -2.06269        0.55884        2.16995
C         -4.41271        0.08467        2.06220
H         -4.87764       -0.88630        1.84276
H         -4.40152        0.27336        3.14218
H         -5.01591        0.85733        1.56225
H         -0.92781       -1.53572        1.52155
Pd        -1.18963       -0.00311       -0.59190
O         -1.35685        1.93243       -1.44878
C         -0.19467        1.79472       -1.91853
O          0.39609        0.68290       -1.71547
C          0.49591        2.89770       -2.64313
H         -0.23807        3.56764       -3.10752
H          1.08298        3.47660       -1.91283
H          1.18701        2.48860       -3.39095
H          1.98583        1.12460        0.04272
C          1.24039        1.90899        1.89797
H          0.96771        2.89166        1.48227
H          0.32979        1.29276        1.91980
H          1.56316        2.06950        2.94033
C          3.58951        2.16994        1.01045
H          4.36757        1.76127        0.34812
H          3.32273        3.16756        0.63020
H          4.03072        2.30999        2.01192
