36
TwoHchromene_H8_deriv1_Int1_Sub30.log	Energy: -945062.1048185
C          0.27248       -1.37520        0.89636
C          0.95999       -0.84464        2.01680
C         -1.11062       -1.11088        0.76626
C          0.25482       -0.09202        2.99170
H          1.99138       -1.15167        2.20204
C         -1.79668       -0.34909        1.70739
O         -1.74407       -1.65745       -0.29062
C         -1.09104        0.14743        2.82860
H          0.78665        0.29198        3.86350
C         -3.20680       -0.12189        1.47193
C         -2.90283       -1.06925       -0.77686
H         -1.63808        0.73948        3.56633
C         -3.74685       -0.46775        0.29222
H         -3.80928        0.34668        2.25368
Cl        -2.39776        0.34482       -1.90326
C         -3.59902       -2.08166       -1.65092
H         -4.79615       -0.28465        0.05377
O          3.01590       -0.42920       -0.03525
C          3.11340       -1.42525       -0.87375
O          2.17557       -2.00504       -1.39085
C          4.55220       -1.79404       -1.15676
H          5.13289       -1.84146       -0.22536
H          4.59070       -2.75254       -1.68776
H          5.00313       -1.01004       -1.78363
H          0.74338       -2.06654        0.18994
Pd         1.29629        0.49083        0.23337
O          1.41804        2.21808       -0.99843
C          0.28862        2.56703       -0.55679
O         -0.23666        1.83689        0.34685
C         -0.43723        3.75912       -1.07222
H          0.19348        4.32582       -1.76683
H         -1.34641        3.41074       -1.58479
H         -0.75314        4.39245       -0.23141
H         -3.92061       -2.93190       -1.03110
H         -2.90463       -2.43853       -2.42223
H         -4.47378       -1.62781       -2.13313
