36
TwoHchromene_H8_Int1_Sub14.log	Energy: -656734.4484862
C          0.06354       -1.54167       -0.28569
C         -0.05116       -1.14898       -1.64265
C          1.30544       -1.33876        0.37033
C          1.04760       -0.56885       -2.30934
H         -0.95493       -1.41058       -2.19629
C          2.39273       -0.77184       -0.29769
O          1.39745       -1.75346        1.64081
C          2.25498       -0.37448       -1.65630
H          0.94190       -0.27182       -3.35438
C          3.64079       -0.67480        0.45096
C          2.32526       -1.07480        2.47288
C          3.41088        0.25735       -2.36964
C          3.63180       -0.84764        1.78010
H          4.57425       -0.48616       -0.08217
H          1.87832       -0.11088        2.79427
H          2.43751       -1.70224        3.36739
H          4.54726       -0.79749        2.37462
O         -2.67445       -0.44635       -0.65674
C         -3.21139       -1.15476        0.30147
O         -2.65515       -1.44529        1.34437
C         -4.62608       -1.57913       -0.01971
H         -4.68483       -1.99706       -1.03426
H         -4.96899       -2.31177        0.72042
H         -5.28055       -0.69506        0.00773
H         -0.69657       -2.13468        0.22843
Pd        -0.95419        0.42202       -0.25579
O         -1.48836        2.36924        0.39522
C         -0.26089        2.64086        0.50150
O          0.57603        1.73480        0.18374
C          0.20308        3.96129        1.01452
H         -0.48996        4.75207        0.70016
H          0.20547        3.92889        2.11507
H          1.22256        4.17036        0.66752
H          4.28092       -0.41749       -2.40962
H          3.73475        1.17577       -1.85519
H          3.14210        0.52116       -3.40085
